14
 Atoms. Timestep: 0
1 -4.38951 -1.00145 6.43223
2 -3.42059 -1.6666 6.47058
2 -5.21113 -1.60064 6.98672
2 -4.26558 -0.073278 7.02529
1 -4.6784 -0.637218 4.99265
2 -3.92707 0.027287 4.47985
2 -4.67049 -1.58507 4.34312
1 -6.03235 0.060355 4.71026
2 -6.1314 1.0513 5.31412
2 -6.86127 -0.538048 5.06797
1 -6.38185 0.442715 3.22371
2 -6.18467 -0.372868 2.55653
2 -7.38416 0.825105 3.14595
2 -5.67297 1.25176 2.92358
14
 Atoms. Timestep: 1
1 -4.38917 -1.00218 6.433
2 -3.43003 -1.65896 6.47089
2 -5.20518 -1.59594 6.98055
2 -4.2647 -0.0756754 7.02406
1 -4.67848 -0.63746 4.99127
2 -3.92843 0.0239496 4.48467
2 -4.67033 -1.57886 4.34867
1 -6.03278 0.0612944 4.71061
2 -6.12943 1.0421 5.30939
2 -6.86118 -0.539636 5.06875
1 -6.381 0.442956 3.22423
2 -6.18589 -0.375125 2.55479
2 -7.38628 0.825184 3.14496
2 -5.67598 1.24938 2.92395
