14
 Atoms. Timestep: 0
1 1.74934 -11.6247 5.29347
2 0.910076 -11.3852 5.9791
2 1.53529 -12.5158 4.63121
2 1.8372 -10.7326 4.65663
1 3.02112 -11.7669 6.06169
2 3.06622 -12.627 6.73375
2 3.93206 -11.8941 5.38374
1 3.37346 -10.4727 6.80944
2 2.66991 -10.2577 7.64732
2 3.34472 -9.59448 6.10067
1 4.83739 -10.4684 7.2848
2 5.14327 -11.3999 7.87729
2 5.50052 -10.4225 6.4813
2 4.956 -9.71128 8.05655
14
 Atoms. Timestep: 1
1 1.74888 -11.6247 5.29313
2 0.911507 -11.3874 5.97719
2 1.53579 -12.5115 4.63509
2 1.83686 -10.7343 4.65641
1 3.02224 -11.7668 6.0616
2 3.06448 -12.6268 6.73362
2 3.92462 -11.8947 5.38616
1 3.37349 -10.4722 6.80936
2 2.67195 -10.2588 7.64477
2 3.34307 -9.59868 6.10406
1 4.83705 -10.4693 7.28587
2 5.1398 -11.3946 7.87232
2 5.5054 -10.4202 6.47672
2 4.95755 -9.70897 8.05458
