ITEM: TIMESTEP
0
ITEM: NUMBER OF ATOMS
22
ITEM: BOX BOUNDS pp pp pp
-5.0000000000000000e+01 5.0000000000000000e+01
-5.0000000000000000e+01 5.0000000000000000e+01
-5.0000000000000000e+01 5.0000000000000000e+01
ITEM: ATOMS id type x y z fx fy fz
1 1 5.97671 4.56192 2.57381 11.0145 57.4827 20.4088
2 2 5.73275 3.51948 2.36908 68.7665 -101.474 4.72396
3 1 4.97324 3.13405 3.04929 26.4741 7.60483 -4.26389
4 1 6.67516 2.97206 2.38615 -99.3293 46.3157 -6.90672
5 3 5.05302 3.54179 1.04465 -25.8981 -33.2438 -44.3403
6 4 3.91736 3.04402 0.961978 19.1624 11.6574 2.06448
7 5 5.66768 4.08277 -0.0326369 -26.3273 -20.6881 -20.766
8 6 6.58218 4.42096 0.230824 21.8141 10.1277 -9.24231
9 2 5.05196 4.6011 -1.36302 106.231 72.4236 49.5746
10 7 5.91159 4.98815 -1.91013 -81.6486 -25.042 48.5386
11 2 4.45055 3.61381 -2.31436 -116.933 -94.5464 212.489
12 1 3.86884 2.86966 -1.77035 57.9835 90.7677 -61.3591
13 1 3.8603 4.14307 -3.06242 -65.2386 54.4307 -82.562
14 1 5.24559 3.03333 -2.7824 111.161 -76.1067 -68.6507
15 3 4.15207 5.8227 -0.907007 20.177 -50.0706 3.86175
16 4 4.26516 6.82822 -1.58582 -19.8682 16.3333 1.34584
17 5 3.43525 5.70298 0.26421 25.1253 30.0335 -41.9158
18 6 3.53081 4.88552 0.849643 -2.06897 -3.94027 -9.30225
19 2 2.34777 6.5733 0.535498 70.6866 98.37 -30.7324
20 7 2.56197 7.61019 0.794482 8.32125 -45.8404 -4.63431
21 7 1.84868 6.67422 -0.42826 -39.042 0.098783 -36.9928
22 7 1.78277 6.09572 1.336 -70.5627 -44.6939 78.6616
ITEM: TIMESTEP
1
ITEM: NUMBER OF ATOMS
22
ITEM: BOX BOUNDS pp pp pp
-5.0000000000000000e+01 5.0000000000000000e+01
-5.0000000000000000e+01 5.0000000000000000e+01
-5.0000000000000000e+01 5.0000000000000000e+01
ITEM: ATOMS id type x y z fx fy fz
1 1 5.95473 4.57019 2.56665 -1.25613 -2.02957 11.118
2 2 5.73323 3.52085 2.37191 -2.91973 16.0559 -7.2522
3 1 4.96163 3.11381 3.0254 13.3321 1.97302 11.5829
4 1 6.67108 2.96563 2.38811 -4.88332 -6.06282 -4.60212
5 3 5.05357 3.53708 1.03932 -24.4538 -33.3028 -39.5565
6 4 3.91985 3.03967 0.95637 17.1541 10.3709 1.68471
7 5 5.66363 4.08008 -0.0358768 -0.875177 -9.46367 -13.8519
8 6 6.5655 4.4383 0.244128 1.61688 1.95441 -16.3467
9 2 5.05548 4.60524 -1.36501 28.6111 31.2882 98.9669
10 7 5.91918 4.97186 -1.91973 -6.89884 12.0295 1.9306
11 2 4.45301 3.61072 -2.306 -6.36694 -28.2003 2.29171
12 1 3.86383 2.87539 -1.75805 -8.25472 4.98505 0.828778
13 1 3.86806 4.14435 -3.05511 -0.894694 -4.46469 -0.875221
14 1 5.24926 3.03147 -2.77349 1.05837 3.09153 -3.79864
15 3 4.14864 5.82 -0.899818 31.6322 -37.9778 -16.7778
16 4 4.26241 6.83516 -1.5834 -21.5265 6.39103 8.35503
17 5 3.44106 5.70253 0.261294 8.21499 32.1855 -24.6345
18 6 3.52809 4.89722 0.864629 0.915173 -4.58828 -12.782
19 2 2.3439 6.5767 0.534807 -8.60798 10.9107 -3.41882
20 7 2.57459 7.61392 0.777808 14.9501 -5.474 5.95457
21 7 1.85254 6.67662 -0.433018 -18.3858 -5.19042 8.16266
22 7 1.79243 6.11148 1.35184 -12.1615 5.51864 -6.97953
