14
 Atoms. Timestep: 0
1 -4.42187 -1.03676 6.39454
2 -3.54799 -1.64846 6.60579
2 -5.27638 -1.61313 6.74466
2 -4.30534 -0.170934 7.02183
1 -4.67858 -0.642817 4.97139
2 -3.83194 -0.003995 4.67162
2 -4.80228 -1.50957 4.32131
1 -6.07845 0.07893 4.73101
2 -6.1222 0.993578 5.31093
2 -6.95002 -0.487392 5.11573
1 -6.38399 0.414928 3.24325
2 -6.26496 -0.45876 2.4922
2 -7.4021 0.860934 3.04681
2 -5.58651 1.20413 2.99673
14
 Atoms. Timestep: 1
1 -4.42204 -1.037 6.39489
2 -3.54717 -1.64879 6.60349
2 -5.2765 -1.61295 6.74547
2 -4.30596 -0.169039 7.02292
1 -4.67913 -0.642455 4.97092
2 -3.83356 -0.00538692 4.67009
2 -4.79881 -1.51045 4.32178
1 -6.07849 0.0787302 4.73107
2 -6.1215 0.994566 5.31121
2 -6.94685 -0.487792 5.11512
1 -6.38354 0.415067 3.24267
2 -6.26546 -0.452309 2.49943
2 -7.39728 0.859166 3.04905
2 -5.59301 1.19864 2.99652
