ITEM: TIMESTEP
0
ITEM: NUMBER OF ATOMS
14
ITEM: BOX BOUNDS pp pp pp
-2.2206855000000001e+01 1.8793144999999999e+01
-1.9677098999999998e+01 2.1322901000000002e+01
-1.9241968000000000e+01 2.1758032000000000e+01
ITEM: ATOMS id type x y z fx fy fz
1 1 -0.968273 -1.60819 2.13891 -35.3015 -32.7053 -19.5533
2 2 -1.84065 -2.18385 1.60971 41.3396 28.65 22.8454
3 2 -1.05785 -1.81343 3.21144 -0.715006 -3.97679 -4.36218
4 2 -0.015036 -2.08209 1.83997 -6.56172 12.9478 -2.29475
5 1 -1.0918 -0.077151 1.99104 -9.21301 -5.12177 23.8921
6 2 -0.366632 0.380739 2.6802 0.698564 -0.827829 -10.2849
7 2 -0.978577 0.342621 1.00574 10.4764 -6.51833 -11.9543
8 1 -2.47562 0.373171 2.46864 -16.188 -33.4891 18.6741
9 2 -2.72093 -0.10015 3.48326 13.5362 27.2767 -26.512
10 2 -3.28255 -0.071327 1.86779 8.5848 4.65037 -3.60255
11 1 -2.57256 1.88488 2.38229 -27.8093 34.8436 37.7228
12 2 -2.67853 2.31546 1.38559 5.84068 -7.6687 -3.51752
13 2 -3.49592 2.24888 2.92984 23.4127 -12.3428 -13.3283
14 2 -1.72161 2.37361 2.89813 -8.10047 -5.71784 -7.72457
ITEM: TIMESTEP
1
ITEM: NUMBER OF ATOMS
14
ITEM: BOX BOUNDS pp pp pp
-2.2206855000000001e+01 1.8793144999999999e+01
-1.9677098999999998e+01 2.1322901000000002e+01
-1.9241968000000000e+01 2.1758032000000000e+01
ITEM: ATOMS id type x y z fx fy fz
1 1 -0.968888 -1.60876 2.13857 -29.9399 -27.3742 -15.6482
2 2 -1.83207 -2.1779 1.61445 35.14 24.4518 19.0412
3 2 -1.058 -1.81425 3.21054 -0.756608 -4.09648 -4.01101
4 2 -0.0163978 -2.07941 1.8395 -5.51736 12.1397 -2.63102
5 1 -1.09197 -0.0772403 1.99146 -9.41278 -5.35806 21.4956
6 2 -0.366487 0.380567 2.67807 1.22512 -0.518522 -9.5157
7 2 -0.976403 0.341268 1.00326 9.9958 -6.9461 -10.3534
8 1 -2.47591 0.372587 2.46897 -14.05 -29.432 14.2277
9 2 -2.71812 -0.094489 3.47776 12.1629 24.6186 -21.6785
10 2 -3.28077 -0.0703619 1.86704 7.70654 4.04931 -3.88541
11 1 -2.57304 1.88548 2.38294 -25.047 31.4013 34.0374
12 2 -2.67732 2.31386 1.38486 5.69527 -7.50758 -3.22466
13 2 -3.49106 2.24632 2.92708 19.5567 -10.6146 -11.0892
14 2 -1.72329 2.37243 2.89652 -6.75866 -4.81327 -6.76493
