22
 Atoms. Timestep: 0
1 3.36257 7.52115 2.80856
2 4.13887 7.21674 2.10657
1 5.12183 7.61341 2.36063
1 3.83353 7.78966 1.231
3 4.14507 5.67327 1.79836
4 3.72338 4.85137 2.58518
5 4.76965 5.35707 0.642643
6 5.37721 6.08534 0.295381
2 4.98114 3.99008 0.071293
7 6.06172 3.86422 0.00343098
2 4.5042 2.77915 0.90306
1 3.42976 2.63617 1.01814
1 4.88392 1.86873 0.43933
1 4.93671 2.79219 1.90349
3 4.49006 4.08195 -1.39375
4 3.56356 3.33276 -1.74218
5 5.17091 4.89997 -2.26389
6 6.00365 5.31376 -1.86966
2 4.48644 5.15356 -3.53574
7 3.41825 5.23372 -3.33412
7 4.81638 6.09872 -3.96691
7 4.65043 4.2505 -4.1237
22
 Atoms. Timestep: 1
1 3.34251 7.51357 2.79635
2 4.13595 7.21833 2.10977
1 5.12949 7.59971 2.34542
1 3.84639 7.77938 1.22124
3 4.14646 5.66978 1.79348
4 3.72542 4.84698 2.5797
5 4.76591 5.35419 0.640324
6 5.35624 6.10334 0.308064
2 4.98487 3.99344 0.068034
7 6.06297 3.85584 -0.0148043
2 4.50725 2.77677 0.90848
1 3.43524 2.62901 1.03907
1 4.90331 1.86308 0.465315
1 4.91461 2.80677 1.91905
3 4.48651 4.07957 -1.38676
4 3.56114 3.33971 -1.73981
5 5.17599 4.8987 -2.26525
6 5.99622 5.32704 -1.86048
2 4.48291 5.15642 -3.53543
7 3.41313 5.24843 -3.34778
7 4.82828 6.09718 -3.96414
7 4.67672 4.26634 -4.134
