22
 Atoms. Timestep: 0
1 0.855451 4.65073 1.94618
2 1.86332 4.26673 2.10381
1 1.72722 3.22028 1.83084
1 2.17861 4.39451 3.13936
3 2.84647 5.02992 1.17638
4 2.6385 6.00196 0.602209
5 3.92048 4.30869 1.18672
6 3.99487 3.66622 1.96247
2 5.12534 4.75611 0.471992
7 5.15555 5.84524 0.50324
2 6.2834 4.61436 1.31859
1 7.12928 4.86667 0.679115
1 6.20761 5.22952 2.21522
1 6.40883 3.5702 1.60512
3 5.16737 4.40672 -1.04032
4 4.94571 3.3138 -1.46066
5 5.4795 5.37783 -1.89336
6 5.95178 6.22097 -1.59981
2 5.63773 5.29039 -3.27208
7 6.2093 6.12223 -3.68371
7 6.1476 4.3711 -3.56024
7 4.60583 5.19789 -3.6108
22
 Atoms. Timestep: 1
1 0.850282 4.64215 1.93848
2 1.86052 4.26859 2.10572
1 1.71674 3.22782 1.81551
1 2.19306 4.37737 3.13804
3 2.84702 5.02374 1.17315
4 2.64048 5.9984 0.596014
5 3.91751 4.30653 1.18367
6 3.97457 3.68078 1.97443
2 5.1262 4.75842 0.468932
7 5.17653 5.84718 0.481729
2 6.28671 4.61311 1.32518
1 7.13629 4.86149 0.689078
1 6.23 5.21506 2.23212
1 6.39054 3.57224 1.63163
3 5.16375 4.40537 -1.03299
4 4.94307 3.31995 -1.45827
5 5.48595 5.37813 -1.89507
6 5.94091 6.22329 -1.58071
2 5.63562 5.29266 -3.273
7 6.20774 6.12064 -3.6916
7 6.15706 4.37794 -3.55497
7 4.60571 5.22223 -3.62289
