22
 Atoms. Timestep: 0
1 2.24091 6.58561 -0.123851
2 2.27074 5.70987 0.524441
1 1.2565 5.74232 0.922399
1 2.93671 5.65017 1.38527
3 2.40107 4.32718 -0.125865
4 1.39378 3.59556 -0.350289
5 3.5612 3.69262 -0.424875
6 3.58547 2.69633 -0.588942
2 4.78695 4.2341 -0.907881
7 5.34749 3.32993 -1.14529
2 4.66449 4.91537 -2.33661
1 5.50109 4.63582 -2.97696
1 3.82914 4.34099 -2.73708
1 4.68548 6.0029 -2.40688
3 5.49717 5.08685 0.123159
4 5.20177 6.24435 0.48666
5 6.58654 4.51215 0.604525
6 6.73598 3.57434 0.260615
2 7.51622 5.06713 1.45394
7 8.43941 4.51691 1.27207
7 7.63671 6.11141 1.16574
7 7.13879 4.81135 2.444
22
 Atoms. Timestep: 1
1 2.22156 6.57733 -0.133997
2 2.26978 5.71274 0.528017
1 1.24468 5.71967 0.898446
1 2.94684 5.63921 1.37906
3 2.40159 4.32191 -0.130872
4 1.39637 3.59162 -0.35568
5 3.5574 3.69188 -0.427703
6 3.55867 2.6928 -0.57586
2 4.78982 4.236 -0.911793
7 5.36117 3.34082 -1.15739
2 4.66852 4.91535 -2.33006
1 5.50283 4.61584 -2.96435
1 3.83787 4.3282 -2.72173
1 4.662 6.00419 -2.37994
3 5.49385 5.08559 0.130752
4 5.19916 6.2508 0.488786
5 6.5913 4.51201 0.602069
6 6.73823 3.56884 0.272002
2 7.51265 5.06872 1.45281
7 8.44358 4.53594 1.25888
7 7.64869 6.11316 1.17219
7 7.1597 4.83686 2.45768
