22
 Atoms. Timestep: 0
1 6.27189 3.74144 -3.48629
2 6.16437 4.58975 -2.81033
1 6.1736 5.48691 -3.42929
1 6.96438 4.81011 -2.10356
3 4.86783 4.42586 -2.15357
4 3.99769 3.79362 -2.56871
5 4.87266 5.06973 -1.00706
6 5.69331 5.64066 -0.863251
2 3.8384 5.64525 -0.072326
7 3.81768 6.73443 -0.109128
2 2.47104 5.33232 -0.352674
1 1.79577 5.89548 0.291502
1 2.29376 5.77461 -1.33301
1 2.47032 4.24244 -0.368977
3 4.28216 5.25617 1.40818
4 5.23185 5.87265 1.89911
5 3.69713 4.18338 1.86827
6 2.95639 3.69174 1.38901
2 4.43345 3.33316 2.85862
7 3.79239 2.56883 3.29788
7 5.04741 2.70822 2.21008
7 5.03967 3.92014 3.54859
22
 Atoms. Timestep: 1
1 6.24934 3.7458 -3.48974
2 6.1646 4.59213 -2.80808
1 6.1544 5.46896 -3.45551
1 6.97508 4.78833 -2.10613
3 4.86945 4.42252 -2.15717
4 3.99917 3.78857 -2.57478
5 4.86858 5.06815 -1.00949
6 5.67554 5.65388 -0.848765
2 3.84115 5.64707 -0.0743041
7 3.84521 6.73566 -0.129752
2 2.47443 5.33192 -0.346131
1 1.78915 5.87024 0.308615
1 2.31027 5.77131 -1.33004
1 2.44557 4.2423 -0.346237
3 4.27828 5.25506 1.41382
4 5.22926 5.87924 1.90167
5 3.70337 4.18197 1.86741
6 2.94729 3.70306 1.39933
2 4.43064 3.33691 2.85809
7 3.79009 2.5697 3.29304
7 5.05807 2.71555 2.21907
7 5.04866 3.93023 3.53197
