14
 Atoms. Timestep: 0
1 0.849411 -11.4887 7.01694
2 1.09268 -11.2468 5.98307
2 -0.02692 -12.1449 7.05572
2 1.61572 -12.2897 7.30845
1 0.888902 -10.3202 8.05083
2 0.278246 -9.54326 7.70757
2 0.435866 -10.6983 8.98749
1 2.30154 -9.75459 8.37615
2 2.76055 -9.35649 7.48837
2 3.01952 -10.5806 8.77734
1 2.28576 -8.68736 9.46188
2 1.81306 -7.75889 9.09495
2 1.66266 -9.0582 10.3208
2 3.32591 -8.4045 9.82502
14
 Atoms. Timestep: 1
1 0.850102 -11.4895 7.0173
2 1.09207 -11.2451 5.9832
2 -0.0284826 -12.1416 7.05539
2 1.61173 -12.2829 7.30679
1 0.889151 -10.3207 8.05106
2 0.274314 -9.53869 7.70575
2 0.436728 -10.6972 8.98564
1 2.30203 -9.75539 8.37651
2 2.76136 -9.35583 7.48655
2 3.01231 -10.5741 8.77282
1 2.2858 -8.68711 9.46229
2 1.81374 -7.76072 9.09552
2 1.66609 -9.05617 10.3179
2 3.31995 -8.40675 9.82299
