ITEM: TIMESTEP
0
ITEM: NUMBER OF ATOMS
22
ITEM: BOX BOUNDS pp pp pp
-5.0000000000000000e+01 5.0000000000000000e+01
-5.0000000000000000e+01 5.0000000000000000e+01
-5.0000000000000000e+01 5.0000000000000000e+01
ITEM: ATOMS id type x y z fx fy fz
1 1 3.33625 7.96627 1.66802 4.10898 5.10167 -8.54377
2 2 4.01792 7.67573 0.868634 -84.976 -52.2578 51.5343
3 1 4.93172 8.26651 0.932193 110.535 65.3719 13.0592
4 1 3.58455 7.89417 -0.107365 -24.442 2.82352 -45.6374
5 3 4.26312 6.22587 1.06754 5.20481 -34.8342 -38.6691
6 4 3.35487 5.59277 1.58256 8.66911 -15.9203 -0.381162
7 5 5.36516 5.70955 0.434894 -34.662 44.2975 38.3995
8 6 5.90271 6.52034 0.163306 20.2346 -19.087 -15.3153
9 2 5.73239 4.32984 0.0429561 46.6269 8.51279 -84.0481
10 7 6.70691 4.446 -0.431295 -107.233 -25.4832 51.121
11 2 5.8489 3.48295 1.36045 -52.1855 13.658 96.683
12 1 5.75866 2.40227 1.25049 13.7434 57.5903 -8.79206
13 1 6.78576 3.75164 1.84852 -91.9133 -26.4785 -38.1194
14 1 4.95125 3.72317 1.9302 131.285 -33.2678 -65.7611
15 3 4.65899 3.75713 -1.08112 41.4401 -2.42763 69.0528
16 4 5.04865 2.95644 -1.90889 28.5786 -0.149466 -10.66
17 5 3.35041 4.02974 -1.01678 -22.3319 73.5764 56.9962
18 6 3.03614 4.55044 -0.210425 22.6637 -56.8643 -95.1336
19 2 2.49679 3.63543 -2.19344 141.223 29.5329 -95.0701
20 7 2.56215 4.183 -3.13365 0.92992 -25.2538 88.4842
21 7 2.94083 2.69515 -2.52026 -32.7276 7.34356 5.43097
22 7 1.45648 3.54127 -1.882 -124.771 -15.7846 35.3698
ITEM: TIMESTEP
1
ITEM: NUMBER OF ATOMS
22
ITEM: BOX BOUNDS pp pp pp
-5.0000000000000000e+01 5.0000000000000000e+01
-5.0000000000000000e+01 5.0000000000000000e+01
-5.0000000000000000e+01 5.0000000000000000e+01
ITEM: ATOMS id type x y z fx fy fz
1 1 3.31284 7.96368 1.65485 2.50351 7.97959 -2.92504
2 2 4.01572 7.67796 0.872277 7.43779 17.8547 0.811632
3 1 4.93756 8.25826 0.911894 0.990563 -2.53559 8.73034
4 1 3.59601 7.87872 -0.113441 -4.39739 -6.20723 2.15523
5 3 4.26421 6.22113 1.06231 -1.36153 -29.429 -33.7476
6 4 3.35722 5.58806 1.57692 7.7927 -16.8148 -0.130119
7 5 5.36099 5.70783 0.432538 -31.1529 46.9328 37.1243
8 6 5.88571 6.53162 0.175349 23.5671 -20.216 -17.4684
9 2 5.73487 4.33287 0.038637 -56.5867 -12.3653 -24.8876
10 7 6.70919 4.42962 -0.440362 -3.59632 -10.4685 0.755878
11 2 5.85249 3.48175 1.3668 -12.3261 13.6711 -22.623
12 1 5.74447 2.40112 1.2737 9.32635 2.34547 -16.1535
13 1 6.78798 3.73613 1.86505 -5.2057 -0.5767 5.07977
14 1 4.9591 3.7302 1.93971 8.01968 0.0942648 12.0415
15 3 4.65593 3.75526 -1.0728 48.6033 -2.70995 63.1002
16 4 5.04654 2.96316 -1.90663 29.5294 -1.75407 -10.511
17 5 3.35551 4.02994 -1.01822 1.04909 17.7093 -30.3821
18 6 3.03856 4.55116 -0.213252 -11.3152 0.395847 -6.21212
19 2 2.49415 3.63763 -2.19525 9.21206 -2.89158 27.1942
20 7 2.57324 4.19101 -3.131 4.5905 16.8442 13.646
21 7 2.946 2.69906 -2.51621 -26.9594 -11.9637 -1.96417
22 7 1.45489 3.56303 -1.87513 0.279233 -5.89489 -3.63431
