22
 Atoms. Timestep: 0
1 5.91379 5.46879 -3.19529
2 6.6766 5.25637 -2.44623
1 7.33466 6.1092 -2.2797
1 7.40357 4.53107 -2.8117
3 5.96647 4.65334 -1.19711
4 6.49148 4.66709 -0.120717
5 4.67445 4.27018 -1.37337
6 4.37439 4.27963 -2.33772
2 3.55444 3.88016 -0.590619
7 2.73983 3.73217 -1.29956
2 3.83848 2.37684 -0.0663846
1 4.70469 2.02951 0.496764
1 3.64741 1.81602 -0.9813
1 2.9456 2.1527 0.517243
3 3.06415 4.8902 0.556756
4 1.86444 5.22496 0.572224
5 4.04181 5.59898 1.24373
6 5.00843 5.31001 1.19635
2 3.70484 6.49682 2.41223
7 2.71642 6.25264 2.80146
7 4.4078 6.12447 3.15742
7 4.04236 7.52029 2.24885
22
 Atoms. Timestep: 1
1 5.90669 5.46142 -3.19181
2 6.67431 5.25626 -2.44564
1 7.33269 6.11181 -2.29507
1 7.40338 4.52831 -2.8015
3 5.96691 4.64955 -1.20201
4 6.4939 4.66257 -0.126017
5 4.67145 4.26797 -1.37633
6 4.35187 4.29605 -2.33402
2 3.55657 3.88226 -0.591741
7 2.76125 3.72305 -1.3199
2 3.84031 2.37627 -0.0603084
1 4.6909 2.02094 0.521359
1 3.66975 1.79595 -0.967086
1 2.94691 2.17047 0.52925
3 3.06107 4.88881 0.563198
4 1.86219 5.23152 0.574802
5 4.04574 5.59822 1.24185
6 5.01577 5.31873 1.20983
2 3.70327 6.4999 2.41138
7 2.70916 6.26528 2.79191
7 4.41117 6.13193 3.15406
7 4.05404 7.51954 2.25207
