ITEM: TIMESTEP
0
ITEM: NUMBER OF ATOMS
14
ITEM: BOX BOUNDS pp pp pp
-2.2206855000000001e+01 1.8793144999999999e+01
-1.9677098999999998e+01 2.1322901000000002e+01
-1.9241968000000000e+01 2.1758032000000000e+01
ITEM: ATOMS id type x y z fx fy fz
1 1 -6.3261 -1.98738 2.01646 21.6076 20.7892 -19.19
2 2 -6.59831 -2.81361 2.63738 2.09549 -11.2285 11.0809
3 2 -5.82376 -2.35003 1.09251 -2.70816 -1.2775 17.171
4 2 -7.27867 -1.62586 1.61502 4.5475 9.56485 6.90167
5 1 -5.40159 -0.900345 2.72896 7.05891 -5.33287 -47.1259
6 2 -4.99121 -0.274755 1.85198 -14.5262 -15.1851 38.0299
7 2 -6.06636 -0.270985 3.34567 11.4854 -3.5239 -0.234193
8 1 -4.18152 -1.53348 3.51757 3.21056 16.1533 17.3969
9 2 -3.43821 -2.06615 2.84748 -20.0679 17.4922 13.5793
10 2 -4.65212 -2.37028 4.08122 11.7543 14.6577 0.97533
11 1 -3.40354 -0.478877 4.51213 31.0947 -80.5109 -4.19846
12 2 -4.02994 0.25405 5.02011 -2.24233 1.22768 -3.9568
13 2 -2.85446 -1.11981 5.34577 -31.4966 37.2569 -43.6283
14 2 -2.5587 -0.013217 3.93473 -21.8132 -0.0828264 13.1987
ITEM: TIMESTEP
1
ITEM: NUMBER OF ATOMS
14
ITEM: BOX BOUNDS pp pp pp
-2.2206855000000001e+01 1.8793144999999999e+01
-1.9677098999999998e+01 2.1322901000000002e+01
-1.9241968000000000e+01 2.1758032000000000e+01
ITEM: ATOMS id type x y z fx fy fz
1 1 -6.32572 -1.98702 2.01612 20.2821 19.3908 -15.5774
2 2 -6.59787 -2.81594 2.63968 2.56123 -9.28083 9.65545
3 2 -5.82432 -2.3503 1.09607 -1.77847 -1.8891 15.1032
4 2 -7.27772 -1.62388 1.61645 4.19632 9.45848 6.58564
5 1 -5.40147 -0.900438 2.72813 5.84612 -8.82006 -41.942
6 2 -4.99422 -0.277907 1.85987 -12.2736 -11.8728 33.0637
7 2 -6.06398 -0.271716 3.34562 10.7748 -3.10275 0.118553
8 1 -4.18146 -1.5332 3.51788 1.46492 19.0707 18.093
9 2 -3.44238 -2.06252 2.8503 -17.4384 15.5426 11.3423
10 2 -4.64969 -2.36724 4.08142 10.758 13.0037 1.86529
11 1 -3.403 -0.480281 4.51206 23.5395 -74.6208 -8.70992
12 2 -4.0304 0.254305 5.01929 -1.78605 0.460567 -4.26455
13 2 -2.86099 -1.11208 5.33672 -26.8437 31.8084 -36.8318
14 2 -2.56323 -0.0132342 3.93747 -19.3028 0.851009 11.4985
