ITEM: TIMESTEP
0
ITEM: NUMBER OF ATOMS
22
ITEM: BOX BOUNDS pp pp pp
-5.0000000000000000e+01 5.0000000000000000e+01
-5.0000000000000000e+01 5.0000000000000000e+01
-5.0000000000000000e+01 5.0000000000000000e+01
ITEM: ATOMS id type x y z fx fy fz
1 1 3.14161 3.63282 -3.60308 3.1399 -1.83067 12.4013
2 2 2.68767 3.48308 -2.62348 68.3776 -172.974 -7.99979
3 1 2.54673 2.42351 -2.41007 -17.9771 89.6221 -43.2048
4 1 1.86359 4.18338 -2.48721 -92.8866 56.7194 10.6849
5 3 3.5697 3.72854 -1.49843 21.3801 19.0553 -9.48798
6 4 3.81771 2.85707 -0.729513 14.5158 -19.5544 40.0646
7 5 4.06329 4.93383 -1.48473 -12.4429 15.8107 18.8592
8 6 3.9095 5.43405 -2.34858 -6.99202 6.4369 -15.16
9 2 4.66566 5.80492 -0.486809 70.0166 -55.5002 -53.8094
10 7 4.06284 6.70997 -0.561564 -53.773 88.1663 -7.96977
11 2 6.01322 6.11346 -1.16548 34.5664 -88.4342 45.3084
12 1 6.13498 7.0944 -1.62487 -5.8924 85.3774 -42.307
13 1 6.503 5.33671 -1.75274 -26.3755 1.11209 -3.04715
14 1 6.79389 6.11058 -0.404788 7.22499 7.35044 24.3708
15 3 4.72967 5.62954 0.994952 -11.4074 -29.7511 28.9007
16 4 4.82256 6.59723 1.73202 3.40883 8.31538 4.45747
17 5 4.62148 4.39015 1.45841 5.59809 73.0425 59.6606
18 6 4.71109 3.70435 0.722375 -2.05171 -79.79 -73.7863
19 2 4.87183 3.94632 2.80698 102.411 124.61 -10.7937
20 7 5.91596 4.16103 3.03456 -56.8203 -20.7784 -5.80957
21 7 4.21523 4.42658 3.53246 -18.8851 26.8455 20.0871
22 7 4.54862 2.90728 2.87044 -25.135 -133.852 8.5803
ITEM: TIMESTEP
1
ITEM: NUMBER OF ATOMS
22
ITEM: BOX BOUNDS pp pp pp
-5.0000000000000000e+01 5.0000000000000000e+01
-5.0000000000000000e+01 5.0000000000000000e+01
-5.0000000000000000e+01 5.0000000000000000e+01
ITEM: ATOMS id type x y z fx fy fz
1 1 3.11799 3.62879 -3.6119 9.0975 1.26795 5.39502
2 2 2.68814 3.48321 -2.62087 -13.927 -19.7473 -11.3761
3 1 2.52589 2.42029 -2.44205 -25.7591 3.97263 -19.8031
4 1 1.86085 4.17911 -2.4816 -10.2929 -12.44 -2.76743
5 3 3.57107 3.72474 -1.50315 23.8534 17.5559 -6.80387
6 4 3.82014 2.85231 -0.734624 13.4431 -19.5897 37.4754
7 5 4.05945 4.93169 -1.48738 -12.4989 31.0746 5.77487
8 6 3.88684 5.45062 -2.3365 -4.65037 -5.19118 -0.83187
9 2 4.66855 5.80684 -0.490601 10.8737 22.6544 -55.8173
10 7 4.07621 6.71718 -0.582895 2.45613 2.45098 1.57526
11 2 6.01832 6.11048 -1.16003 49.8201 6.97486 30.0206
12 1 6.11671 7.09901 -1.60861 -12.4267 -2.92459 -4.18942
13 1 6.51882 5.32693 -1.72893 -20.4521 -5.10316 -9.71014
14 1 6.77599 6.12604 -0.376575 -5.93369 7.49151 7.25706
15 3 4.72569 5.62719 1.00258 -9.6805 -16.4974 17.42
16 4 4.82012 6.60406 1.73448 2.23562 2.66427 3.76316
17 5 4.627 4.39034 1.45701 10.6053 -4.82663 -13.7066
18 6 4.70838 3.70031 0.723979 -10.9431 -6.05881 3.63956
19 2 4.86851 3.95018 2.80664 -9.89102 -2.21033 9.14514
20 7 5.91506 4.16996 3.01764 -0.948337 -9.21483 7.91066
21 7 4.22327 4.43454 3.53955 1.57014 10.3801 -4.84443
22 7 4.5677 2.90453 2.87174 13.4486 -2.68327 0.473509
