14
 Atoms. Timestep: 0
1 -6.98572 -1.3835 7.43828
2 -7.53805 -0.932232 8.28339
2 -6.22201 -2.02345 7.97742
2 -7.57346 -2.01746 6.79662
1 -6.26307 -0.32693 6.45327
2 -7.11142 0.218618 5.91252
2 -5.87876 0.368023 7.21103
1 -5.22098 -0.833754 5.51266
2 -5.75801 -1.38446 4.71606
2 -4.48452 -1.61165 5.96646
1 -4.34782 0.169586 4.83675
2 -3.6316 0.73641 5.56287
2 -3.7132 -0.335838 4.15873
2 -4.81642 1.00734 4.30093
14
 Atoms. Timestep: 1
1 -6.98471 -1.38337 7.43808
2 -7.53893 -0.932289 8.27997
2 -6.22565 -2.02048 7.97345
2 -7.57608 -2.01923 6.79755
1 -6.26433 -0.326645 6.4543
2 -7.10476 0.215591 5.91508
2 -5.87685 0.368653 7.20805
1 -5.2205 -0.835012 5.51254
2 -5.75676 -1.38358 4.71788
2 -4.49226 -1.60488 5.96432
1 -4.3471 0.170818 4.83737
2 -3.63851 0.729851 5.55744
2 -3.71059 -0.337724 4.15528
2 -4.81843 1.0047 4.30119
