22
 Atoms. Timestep: 0
1 7.51352 7.41437 -0.356787
2 6.54977 7.09543 0.0401482
1 5.8488 7.92716 0.110552
1 6.94623 6.57684 0.913066
3 5.99984 5.99739 -0.889061
4 6.7998 5.39395 -1.57417
5 4.70877 5.8008 -0.910097
6 4.40214 6.40933 -0.164598
2 4.19755 4.34789 -0.79544
7 3.50223 4.23173 -1.62679
2 5.16285 3.24728 -1.09241
1 4.67986 2.285 -0.922598
1 5.45987 3.24919 -2.14116
1 6.05192 3.1997 -0.463603
3 3.27259 4.26024 0.435003
4 3.33171 5.0947 1.39099
5 2.44063 3.23438 0.614225
6 2.46198 2.56826 -0.144673
2 1.48184 3.01152 1.69995
7 1.8735 2.68521 2.66339
7 0.901602 3.91325 1.89569
7 0.865281 2.1502 1.44289
22
 Atoms. Timestep: 1
1 7.50217 7.41758 -0.376233
2 6.54899 7.09651 0.0438486
1 5.82678 7.91157 0.0907569
1 6.9532 6.5695 0.908124
3 6.00144 5.99377 -0.893661
4 6.80216 5.38944 -1.57993
5 4.70462 5.79876 -0.911059
6 4.38406 6.40718 -0.171353
2 4.19851 4.35224 -0.798619
7 3.52615 4.22163 -1.64654
2 5.16604 3.24347 -1.08678
1 4.67104 2.29027 -0.901074
1 5.48482 3.24031 -2.12912
1 6.03899 3.21583 -0.434643
3 3.26891 4.25875 0.44366
4 3.32933 5.10122 1.39277
5 2.44619 3.23432 0.612668
6 2.45912 2.56508 -0.143671
2 1.47815 3.0149 1.69967
7 1.89228 2.69665 2.65639
7 0.908353 3.92244 1.89919
7 0.869346 2.15083 1.43351
