ITEM: TIMESTEP
0
ITEM: NUMBER OF ATOMS
14
ITEM: BOX BOUNDS pp pp pp
-2.2206855000000001e+01 1.8793144999999999e+01
-1.9677098999999998e+01 2.1322901000000002e+01
-1.9241968000000000e+01 2.1758032000000000e+01
ITEM: ATOMS id type x y z fx fy fz
1 1 -5.65396 0.409594 7.36838 31.2557 -3.1297 -25.0794
2 2 -5.11311 0.778481 8.28847 -18.8788 -6.7264 -18.8059
3 2 -5.90851 -0.658574 7.48175 6.02905 8.70824 5.5903
4 2 -6.6304 0.887571 7.20063 8.91431 5.14172 5.98493
5 1 -4.70016 0.562171 6.07856 -24.1771 -20.5038 46.3538
6 2 -4.53563 1.59707 5.87139 8.83766 14.5261 0.729616
7 2 -3.73575 0.040116 6.27324 -11.5222 11.2163 -2.4335
8 1 -5.357 -0.04116 4.86034 -22.9598 -66.4506 -27.3631
9 2 -6.26257 0.524524 4.52192 16.6983 -7.00683 9.97105
10 2 -5.72979 -1.12743 5.15577 19.1513 58.7441 -19.6193
11 1 -4.3325 -0.153305 3.65688 -3.16549 27.2255 3.97731
12 2 -3.60305 -0.921629 3.88038 5.14415 -1.68909 2.33786
13 2 -4.73598 -0.431099 2.64424 -0.193863 9.17975 23.8128
14 2 -3.774 0.836815 3.59673 -15.1332 -29.2355 -5.45651
ITEM: TIMESTEP
1
ITEM: NUMBER OF ATOMS
14
ITEM: BOX BOUNDS pp pp pp
-2.2206855000000001e+01 1.8793144999999999e+01
-1.9677098999999998e+01 2.1322901000000002e+01
-1.9241968000000000e+01 2.1758032000000000e+01
ITEM: ATOMS id type x y z fx fy fz
1 1 -5.65342 0.409539 7.36794 29.707 -3.27455 -26.8281
2 2 -5.11702 0.777085 8.28457 -16.8559 -5.54925 -15.9767
3 2 -5.90726 -0.656767 7.48291 5.64021 7.53649 5.52474
4 2 -6.62855 0.888638 7.20187 8.30946 5.19306 5.65342
5 1 -4.70058 0.561814 6.07936 -24.9859 -17.1938 44.1452
6 2 -4.5338 1.60008 5.87154 8.19798 12.0823 1.18452
7 2 -3.73814 0.0424438 6.27273 -9.76002 10.0285 -1.93279
8 1 -5.3574 -0.0423185 4.85987 -17.2998 -57.9307 -27.9365
9 2 -6.25911 0.52307 4.52399 14.4215 -5.80603 8.99561
10 2 -5.72581 -1.11524 5.1517 16.0223 49.6875 -17.2684
11 1 -4.33256 -0.15283 3.65695 -3.82938 22.9196 7.07252
12 2 -3.60198 -0.92198 3.88086 4.47617 -1.04553 2.03548
13 2 -4.73602 -0.429194 2.64918 -1.18049 8.30494 20.8769
14 2 -3.77714 0.830747 3.5956 -12.8632 -24.9525 -5.54598
