ITEM: TIMESTEP
0
ITEM: NUMBER OF ATOMS
14
ITEM: BOX BOUNDS pp pp pp
-2.2206855000000001e+01 1.8793144999999999e+01
-1.9677098999999998e+01 2.1322901000000002e+01
-1.9241968000000000e+01 2.1758032000000000e+01
ITEM: ATOMS id type x y z fx fy fz
1 1 -3.08316 -3.27663 9.64278 -49.5672 -10.5435 12.9651
2 2 -2.10246 -2.88919 9.46996 15.9659 -0.528758 -1.82935
3 2 -3.46462 -2.90792 10.6213 7.98888 -1.17652 -14.0448
4 2 -3.75014 -2.89348 8.8567 6.6946 4.7986 5.66263
5 1 -3.25101 -4.81652 9.60401 34.7518 -18.6005 -14.5337
6 2 -2.843 -5.12638 8.58846 -13.5008 3.38376 29.1341
7 2 -2.54946 -5.2309 10.3875 -18.2733 4.43683 -20.3328
8 1 -4.70732 -5.36949 9.81713 17.0641 46.655 -2.5476
9 2 -5.37821 -4.62681 9.34627 4.11837 -6.58156 8.28227
10 2 -4.86605 -5.2609 10.9208 -8.21191 -19.048 -19.8134
11 1 -5.01704 -6.68149 9.06643 -42.751 13.9842 14.7058
12 2 -4.37712 -7.47348 9.45031 -0.448441 -7.0647 -9.85802
13 2 -6.10872 -6.91263 9.22568 27.4698 -2.94309 6.26683
14 2 -5.05757 -6.52575 7.97683 18.6993 -6.77176 5.94292
ITEM: TIMESTEP
1
ITEM: NUMBER OF ATOMS
14
ITEM: BOX BOUNDS pp pp pp
-2.2206855000000001e+01 1.8793144999999999e+01
-1.9677098999999998e+01 2.1322901000000002e+01
-1.9241968000000000e+01 2.1758032000000000e+01
ITEM: ATOMS id type x y z fx fy fz
1 1 -3.08403 -3.27681 9.64301 -44.8721 -10.6402 11.0206
2 2 -2.09915 -2.8893 9.46958 13.448 -1.40147 -1.37897
3 2 -3.46296 -2.90816 10.6183 7.0347 -0.491473 -11.8611
4 2 -3.74875 -2.89248 8.85787 5.9143 5.0268 4.89841
5 1 -3.2504 -4.81684 9.60376 29.8776 -15.693 -12.7582
6 2 -2.8458 -5.12568 8.59451 -11.6716 2.16948 24.8165
7 2 -2.55325 -5.22998 10.3833 -15.686 3.04378 -17.5673
8 1 -4.70702 -5.36868 9.81709 17.9604 44.0173 -4.55048
9 2 -5.37735 -4.62818 9.34798 3.17762 -5.30612 7.55801
10 2 -4.86775 -5.26485 10.9167 -8.28699 -18.3078 -17.1036
11 1 -5.01779 -6.68125 9.06669 -37.7405 13.8873 14.924
12 2 -4.37722 -7.47494 9.44826 -0.721559 -6.38033 -9.65346
13 2 -6.10302 -6.91324 9.22698 23.5006 -3.51877 6.48955
14 2 -5.05369 -6.52716 7.97806 18.0656 -6.40555 5.16598
