ITEM: TIMESTEP
0
ITEM: NUMBER OF ATOMS
22
ITEM: BOX BOUNDS pp pp pp
-5.0000000000000000e+01 5.0000000000000000e+01
-5.0000000000000000e+01 5.0000000000000000e+01
-5.0000000000000000e+01 5.0000000000000000e+01
ITEM: ATOMS id type x y z fx fy fz
1 1 4.72899 0.58586 -0.0718836 4.90189 71.2159 6.97047
2 2 5.07665 1.61422 0.0266526 10.9161 -75.3241 17.1137
3 1 6.00694 1.62965 -0.541171 -3.07519 10.7366 -6.76336
4 1 5.3621 1.84695 1.05254 -0.421845 -10.5834 -4.14411
5 3 4.13956 2.69806 -0.385432 -56.3784 44.6867 81.5161
6 4 3.86623 2.87603 -1.50372 -10.271 -2.14539 -64.5009
7 5 3.53178 3.46062 0.622304 86.5781 -5.51264 -36.0336
8 6 3.91397 3.09265 1.48174 -20.4697 12.5823 -2.24726
9 2 3.453 5.00224 0.588204 32.5549 -26.9297 -4.79068
10 7 2.55101 5.2579 0.0321945 -68.8856 10.9785 -4.59224
11 2 3.55325 5.44595 2.05962 -95.135 -31.8784 -10.0828
12 1 3.36936 6.49421 2.29509 -7.67214 12.5199 -6.42993
13 1 2.94934 4.76241 2.65643 9.73486 27.6389 -11.883
14 1 4.58554 5.19519 2.30372 91.8583 -14.085 31.1041
15 3 4.38077 5.85252 -0.351008 14.3408 -31.5163 48.1339
16 4 5.04237 5.33817 -1.15219 32.9194 -32.7308 -57.6337
17 5 4.72146 7.07647 -0.0637582 12.4606 134.06 77.6269
18 6 4.27141 7.44968 0.759811 49.4331 -33.6725 -90.5159
19 2 5.91783 7.94019 -0.740509 -5.62139 14.8499 107.599
20 7 6.80188 7.3261 -0.912124 -38.1472 24.9447 10.9291
21 7 5.56761 8.27676 -1.7163 -8.8354 7.12493 -28.4651
22 7 6.1763 8.85016 -0.19898 -30.7851 -106.96 -52.9105
ITEM: TIMESTEP
1
ITEM: NUMBER OF ATOMS
22
ITEM: BOX BOUNDS pp pp pp
-5.0000000000000000e+01 5.0000000000000000e+01
-5.0000000000000000e+01 5.0000000000000000e+01
-5.0000000000000000e+01 5.0000000000000000e+01
ITEM: ATOMS id type x y z fx fy fz
1 1 4.70574 0.596988 -0.0818302 -14.8591 6.9498 2.66248
2 2 5.07612 1.61605 0.0296964 30.6653 -18.4308 10.8854
3 1 5.98919 1.61006 -0.565585 -4.38397 11.5398 -3.75292
4 1 5.37855 1.82872 1.05508 0.245819 -6.81664 0.998314
5 3 4.13958 2.69471 -0.388565 -55.9845 47.8511 83.959
6 4 3.86833 2.8715 -1.5102 -9.26086 -2.4175 -61.8171
7 5 3.52942 3.45816 0.618836 82.1031 6.00462 -42.1483
8 6 3.88851 3.1105 1.49649 -15.164 4.83489 2.92681
9 2 3.45524 5.00465 0.585266 -20.2576 -22.3734 -30.2509
10 7 2.56125 5.24909 0.0115645 -20.3567 -1.34426 28.1234
11 2 3.55609 5.44395 2.06411 9.04515 -19.9303 4.57218
12 1 3.35073 6.48369 2.31879 -4.24385 -1.56524 -12.2462
13 1 2.97266 4.75814 2.67841 -7.57718 7.92002 0.565326
14 1 4.58521 5.2062 2.33333 -0.319701 8.47195 5.16569
15 3 4.37724 5.85014 -0.343048 25.0515 -22.8506 39.0517
16 4 5.04031 5.34447 -1.15054 30.5353 -35 -56.1124
17 5 4.72708 7.07757 -0.0648888 52.4202 89.453 -4.31703
18 6 4.27938 7.45521 0.757943 0.888562 6.24131 -1.85956
19 2 5.91263 7.94214 -0.73879 -65.7551 -44.4707 19.0346
20 7 6.80486 7.34452 -0.925568 -5.0736 -2.10131 5.68815
21 7 5.57774 8.28062 -1.71929 -1.46655 -3.12229 1.13539
22 7 6.19421 8.85299 -0.210439 -6.25211 -8.84342 7.73596
