14
 Atoms. Timestep: 0
1 -5.71333 -0.888096 1.94926
2 -5.45002 -1.51969 1.14042
2 -5.25395 0.053822 1.7463
2 -6.78615 -0.510463 1.80452
1 -5.58741 -1.45559 3.41301
2 -5.87603 -0.711935 4.20832
2 -6.34552 -2.33382 3.34961
1 -4.17691 -2.09373 3.62517
2 -3.36875 -1.33303 3.47262
2 -4.08619 -2.83621 2.74626
1 -3.81397 -2.70273 4.98334
2 -4.32088 -3.6282 5.23915
2 -2.68073 -3.02116 4.95285
2 -3.86275 -1.95327 5.79067
14
 Atoms. Timestep: 1
1 -5.71439 -0.88741 1.94971
2 -5.44917 -1.52393 1.1383
2 -5.24949 0.0556497 1.74801
2 -6.77952 -0.515505 1.80515
1 -5.58773 -1.4562 3.41272
2 -5.87488 -0.71537 4.20476
2 -6.33962 -2.32587 3.35326
1 -4.17672 -2.09374 3.62437
2 -3.37274 -1.33509 3.47189
2 -4.08516 -2.83171 2.7543
1 -3.81284 -2.70296 4.98341
2 -4.32311 -3.6277 5.23919
2 -2.69254 -3.01768 4.95297
2 -3.86404 -1.95494 5.78975
