14
 Atoms. Timestep: 0
1 -3.87713 0.822847 2.81102
2 -2.86118 1.1007 3.26212
2 -4.60958 0.630964 3.6482
2 -4.13888 1.52093 2.06348
1 -3.71017 -0.476838 2.08732
2 -4.73329 -0.571756 1.51178
2 -3.03422 -0.386642 1.2441
1 -3.45381 -1.71778 2.89812
2 -4.21944 -1.74356 3.70204
2 -2.42258 -1.58621 3.3233
1 -3.55389 -2.97908 1.98243
2 -2.65854 -3.22777 1.40192
2 -3.96687 -3.86977 2.46823
2 -4.38502 -2.8245 1.2515
14
 Atoms. Timestep: 1
1 -3.87634 0.822438 2.81202
2 -2.86853 1.09976 3.25935
2 -4.60736 0.634656 3.64369
2 -4.14185 1.52598 2.0623
1 -3.71142 -0.476853 2.08619
2 -4.72295 -0.572348 1.51849
2 -3.03198 -0.386451 1.24473
1 -3.45353 -1.71791 2.8983
2 -4.21681 -1.7444 3.70065
2 -2.42717 -1.58835 3.32295
1 -3.55447 -2.97903 1.98225
2 -2.65859 -3.22709 1.40299
2 -3.96406 -3.86921 2.46998
2 -4.38126 -2.82418 1.25315
