22
 Atoms. Timestep: 0
1 2.33322 4.75507 2.96655
2 1.678 4.72173 2.0961
1 0.715021 5.18897 2.30216
1 1.6624 3.67993 1.77594
3 2.4084 5.39592 0.916969
4 1.89093 6.2184 0.226198
5 3.65208 4.9061 0.697792
6 3.97888 4.0132 1.03841
2 4.64958 5.32289 -0.294859
7 4.12324 5.63589 -1.19658
2 5.28736 6.51966 0.312754
1 6.1182 6.88253 -0.29234
1 4.51223 7.21547 0.633891
1 5.77642 6.31361 1.26484
3 5.45946 4.11215 -0.7178
4 5.29923 2.97693 -0.234159
5 6.47124 4.27053 -1.61764
6 6.71864 5.2218 -1.84999
2 7.04273 3.0627 -2.27737
7 7.80122 2.73712 -1.56548
7 6.28948 2.27615 -2.32277
7 7.48732 3.25008 -3.25478
22
 Atoms. Timestep: 1
1 2.32213 4.75312 2.97424
2 1.6766 4.72359 2.09644
1 0.69741 5.16655 2.27828
1 1.67551 3.67883 1.78567
3 2.40988 5.3909 0.912993
4 1.89297 6.21428 0.220382
5 3.64831 4.90453 0.694178
6 3.95745 4.01653 1.06293
2 4.65015 5.32569 -0.297701
7 4.14704 5.62586 -1.21687
2 5.29139 6.51697 0.319151
1 6.12174 6.88154 -0.285585
1 4.52648 7.21545 0.658482
1 5.75597 6.32498 1.28631
3 5.45678 4.10986 -0.710878
4 5.29649 2.98392 -0.231672
5 6.4762 4.26993 -1.6199
6 6.7162 5.22731 -1.83418
2 7.03879 3.06569 -2.27835
7 7.81453 2.74822 -1.58155
7 6.29432 2.27072 -2.3217
7 7.50497 3.27336 -3.2415
