LAMMPS (23 Jun 2022)
  using 1 OpenMP thread(s) per MPI task

units			real

neigh_modify    once yes  one  22 page 2200

atom_style	full
bond_style      harmonic
angle_style     harmonic
dihedral_style  harmonic
pair_style      lj/cut/coul/cut 12.0
pair_modify     mix arithmetic

kspace_style    none
read_data       example.input
Reading data file ...
  orthogonal box = (-50 -50 -50) to (50 50 50)
  1 by 1 by 2 MPI processor grid
  reading atoms ...
  22 atoms
  scanning bonds ...
  3 = max bonds/atom
  scanning angles ...
  6 = max angles/atom
  scanning dihedrals ...
  20 = max dihedrals/atom
  reading bonds ...
  21 bonds
  reading angles ...
  36 angles
  reading dihedrals ...
  66 dihedrals
Finding 1-2 1-3 1-4 neighbors ...
  special bond factors lj:    0        0        0       
  special bond factors coul:  0        0        0       
     4 = max # of 1-2 neighbors
     7 = max # of 1-3 neighbors
    13 = max # of 1-4 neighbors
    16 = max # of special neighbors
  special bonds CPU = 0.000 seconds
  read_data CPU = 0.004 seconds
timestep        2.0

velocity all create 600 3

thermo 10000
thermo_style custom time step etotal ke pe temp press vol

fix pl all plumed plumedfile plumed.dat outfile plumed.log

fix             1 all nvt temp 400 400 200.0
fix             2 all shake 0.0001 10 0 b 3 5 7
       3 = # of size 2 clusters
       0 = # of size 3 clusters
       3 = # of size 4 clusters
       0 = # of frozen angles
  find clusters CPU = 0.000 seconds
#fix        	ssages all ssages
dump myDump all custom 10000 forces.dump id type x y z fx fy fz
dump mydumpxyz all xyz 10000 traj_nnip.xyz
special_bonds   amber
Finding 1-2 1-3 1-4 neighbors ...
  special bond factors lj:    0        0        0.5     
  special bond factors coul:  0        0        0.8333333333333334
     4 = max # of 1-2 neighbors
     7 = max # of 1-3 neighbors
    13 = max # of 1-4 neighbors
    16 = max # of special neighbors
  special bonds CPU = 0.000 seconds
dump_modify myDump sort id
dump_modify mydumpxyz sort id


run 50000000
Generated 21 of 21 mixed pair_coeff terms from arithmetic mixing rule
Neighbor list info ...
  update every 1 steps, delay 10 steps, check yes
  max neighbors/atom: 22, page size: 2200
  master list distance cutoff = 14
  ghost atom cutoff = 14
  binsize = 7, bins = 15 15 15
  1 neighbor lists, perpetual/occasional/extra = 1 0 0
  (1) pair lj/cut/coul/cut, perpetual
      attributes: half, newton on
      pair build: half/bin/newton
      stencil: half/bin/3d
      bin: standard
Per MPI rank memory allocation (min/avg/max) = 17.87 | 17.87 | 17.87 Mbytes
     Time         Step         TotEng         KinEng         PotEng          Temp          Press          Volume    
 0                      0   19.989243      37.558207     -17.568964      741.17647      4.0328271      1000000      
 20000              10000   23.395403      22.54838       0.84702381     444.97142      0.83339373     1000000      
 40000              20000   15.401992      16.176777     -0.77478449     319.23373     -1.2099857      1000000      
 60000              30000   17.864004      17.288071      0.57593275     341.16409     -2.9837638      1000000      
 80000              40000   25.676835      23.160529      2.5163055      457.05163      0.52242983     1000000      
 100000             50000   21.657173      28.28887      -6.6316971      558.25469     -3.4304063      1000000      
 120000             60000   23.566414      20.499719      3.0666944      404.543        1.4099475      1000000      
 140000             70000   14.076839      21.379204     -7.3023651      421.89882     -0.055594854    1000000      
 160000             80000   12.968752      22.248937     -9.2801849      439.06219     -0.8111132      1000000      
 180000             90000   18.327514      19.706946     -1.3794317      388.89836     -0.60161217     1000000      
 200000            100000   24.283832      23.067484      1.2163487      455.21546     -0.80267611     1000000      
 220000            110000   19.304894      23.219279     -3.9143846      458.21099      0.49038546     1000000      
 240000            120000   16.02626       15.760109      0.26615112     311.01117     -3.9430952      1000000      
 260000            130000   13.8802        14.328621     -0.44842111     282.76208     -1.580563       1000000      
 280000            140000   17.667793      22.035514     -4.3677208      434.85049      2.308989       1000000      
 300000            150000   25.688602      15.446203      10.242399      304.81653      0.25525545     1000000      
 320000            160000   18.953005      21.03334      -2.0803344      415.0735       0.95896079     1000000      
 340000            170000   34.556022      24.01634       10.539681      473.94026     -2.8528361      1000000      
 360000            180000   9.3862016      17.14673      -7.7605281      338.37485      1.1122663      1000000      
 380000            190000   15.803283      17.094422     -1.2911389      337.3426      -1.8374877      1000000      
 400000            200000   23.717955      20.520518      3.1974371      404.95344     -1.3443564      1000000      
 420000            210000   23.539792      21.919096      1.6206963      432.55308      1.2203697      1000000      
 440000            220000   15.787386      17.17892      -1.391534       339.01009      1.7291621      1000000      
 460000            230000   15.975531      16.028198     -0.05266706     316.30166      0.085187036    1000000      
 480000            240000   11.800842      16.209744     -4.4089012      319.8843       0.74294477     1000000      
 500000            250000   18.727541      18.853235     -0.12569431     372.05116     -1.8697876      1000000      
 520000            260000   14.393579      22.291872     -7.898293       439.90948      2.1770907      1000000      
 540000            270000   22.012992      22.482594     -0.46960216     443.6732      -6.3382744      1000000      
 560000            280000   11.211962      19.266583     -8.0546202      380.20819      3.1884468      1000000      
 580000            290000   15.064838      20.202243     -5.1374053      398.67259      0.58673913     1000000      
 600000            300000   8.2608085      14.612879     -6.35207        288.37164     -2.6995421      1000000      
 620000            310000   14.831172      21.153805     -6.3226328      417.45077     -2.6722446      1000000      
 640000            320000   13.20005       17.806263     -4.6062132      351.39013     -3.7782823      1000000      
 660000            330000   16.403357      15.021157      1.3822002      296.42864     -1.3894561      1000000      
 680000            340000   12.319217      18.554255     -6.2350373      366.15105      1.7715698      1000000      
 700000            350000   11.849864      18.830246     -6.9803828      371.5975      -0.26194718     1000000      
 720000            360000   14.011444      18.496169     -4.4847257      365.0048      -1.3714655      1000000      
 740000            370000   25.185445      23.607         1.5784454      465.86231     -3.3656301      1000000      
 760000            380000   23.505748      24.320029     -0.81428094     479.93327      0.20534089     1000000      
 780000            390000   15.402529      17.459882     -2.0573531      344.55462      1.039057       1000000      
 800000            400000   11.215635      16.058232     -4.8425965      316.89435      0.35309849     1000000      
 820000            410000   23.248448      20.155093      3.0933552      397.74213     -0.63021791     1000000      
 840000            420000   11.050018      13.702193     -2.6521745      270.4001      -0.3422066      1000000      
 860000            430000   12.464985      16.734777     -4.2697919      330.24535      1.2409729      1000000      
 880000            440000   15.231607      24.758396     -9.5267886      488.58404     -2.6006317      1000000      
 900000            450000   24.55094       24.837721     -0.28678164     490.14946      2.2008115      1000000      
 920000            460000   15.105952      18.830338     -3.7243862      371.5993       2.2984594      1000000      
 940000            470000   15.132364      17.436228     -2.3038634      344.08783     -0.17789251     1000000      
 960000            480000   27.158994      24.643577      2.5154172      486.31821     -3.6523633      1000000      
 980000            490000   23.577627      25.661413     -2.0837859      506.40424     -2.6503118      1000000      
 1000000           500000   15.027182      16.677545     -1.650363       329.11593     -0.50562019     1000000      
 1020000           510000   17.184194      19.855697     -2.6715031      391.83381      2.6246839      1000000      
 1040000           520000   22.226683      29.113142     -6.8864585      574.52093      1.4322561      1000000      
 1060000           530000   24.169935      21.7351        2.4348352      428.9221       1.2965557      1000000      
 1080000           540000   18.664005      21.785705     -3.1216998      429.92074     -2.9527466      1000000      
 1100000           550000   4.4870709      15.919933     -11.432862      314.16516     -0.79452486     1000000      
 1120000           560000   24.327078      23.037474      1.2896046      454.62323     -2.9929467      1000000      
 1140000           570000   22.958137      22.348095      0.61004215     441.01899     -0.62179243     1000000      
 1160000           580000   15.362764      22.393885     -7.0311208      441.92261     -1.7021565      1000000      
 1180000           590000   30.329125      26.490937      3.8381884      522.77413     -3.6450604      1000000      
 1200000           600000   18.937247      22.727691     -3.7904445      448.50997      0.66346756     1000000      
 1220000           610000   10.221617      18.553863     -8.3322462      366.14333      3.6727363      1000000      
 1240000           620000   31.87209       30.594298      1.277792       603.75018     -0.1670974      1000000      
 1260000           630000   12.16806       16.055953     -3.8878927      316.84939      1.6224523      1000000      
 1280000           640000   10.805305      18.321615     -7.51631        361.56013      3.8640515      1000000      
 1300000           650000   14.880097      20.688012     -5.8079155      408.25878     -2.0191113      1000000      
 1320000           660000   9.2761374      14.594936     -5.3187984      288.01756      3.0872144      1000000      
 1340000           670000   18.415685      21.615642     -3.1999569      426.5647       1.8792454      1000000      
 1360000           680000   12.86367       15.143596     -2.2799257      298.84486      0.2364631      1000000      
 1380000           690000   22.913573      24.927697     -2.0141241      491.92504      0.43294999     1000000      
 1400000           700000   14.321325      17.00575      -2.6844242      335.59274      2.8580856      1000000      
 1420000           710000   22.588388      22.762848     -0.17446088     449.20376      4.3966092      1000000      
 1440000           720000   14.256701      18.496375     -4.2396734      365.00885      5.0918977      1000000      
 1460000           730000   30.388876      28.870136      1.5187397      569.72543     -0.44965779     1000000      
 1480000           740000   18.512112      22.536876     -4.0247641      444.7444      -1.8113747      1000000      
 1500000           750000   14.977934      20.615702     -5.6377682      406.83181      0.59427826     1000000      
 1520000           760000   23.095692      17.605152      5.4905398      347.4214       4.3885086      1000000      
 1540000           770000   8.4400712      14.681357     -6.2412859      289.72301     -0.73915779     1000000      
 1560000           780000   12.395226      18.989107     -6.5938815      374.73247      5.4047124      1000000      
 1580000           790000   20.515341      15.989213      4.5261273      315.53234     -3.408608       1000000      
 1600000           800000   13.669267      17.525591     -3.8563234      345.85132     -2.4358992      1000000      
 1620000           810000   21.625137      18.902639      2.7224971      373.02611     -0.84006397     1000000      
 1640000           820000   17.996196      22.388013     -4.3918168      441.80673     -0.28732039     1000000      
 1660000           830000   15.613193      18.304499     -2.6913061      361.22237     -0.52214612     1000000      
 1680000           840000   12.103331      16.557243     -4.4539124      326.74188     -0.83247681     1000000      
 1700000           850000   9.440707       14.33862      -4.8979126      282.9594      -2.2094835      1000000      
 1720000           860000   14.680734      19.480853     -4.8001191      384.43662     -1.6722642      1000000      
 1740000           870000   11.467375      16.802791     -5.3354152      331.58753      1.9634873      1000000      
 1760000           880000   11.46417       14.562146     -3.0979761      287.37049     -4.7070928      1000000      
 1780000           890000   8.4197457      9.8185405     -1.3987947      193.75982      3.3735367      1000000      
 1800000           900000   23.579781      21.981625      1.5981562      433.78703     -2.4276857      1000000      
 1820000           910000   17.73188       23.074861     -5.3429812      455.36105     -0.14320732     1000000      
 1840000           920000   9.1727303      15.049977     -5.8772469      296.99738     -1.6560167      1000000      
 1860000           930000   23.293618      24.290852     -0.99723404     479.35749      0.636882       1000000      
 1880000           940000   10.748167      18.295785     -7.5476171      361.05039      3.8832591      1000000      
 1900000           950000   26.685883      31.670715     -4.9848325      624.99227     -1.3005296      1000000      
 1920000           960000   15.61609       17.509051     -1.892961       345.52492      1.6021978      1000000      
 1940000           970000   16.724567      18.750912     -2.0263449      370.0319      -2.2791632      1000000      
 1960000           980000   17.250857      21.918798     -4.6679405      432.5472      -0.095869969    1000000      
 1980000           990000   9.027137       15.137284     -6.1101472      298.7203      -0.60153615     1000000      
 2000000          1000000   12.637437      15.46312      -2.8256824      305.15036      1.9060071      1000000      
 2020000          1010000   31.693683      29.273343      2.4203399      577.68234     -2.6450888      1000000      
 2040000          1020000   23.25926       21.375996      1.8832638      421.83551     -0.4409903      1000000      
 2060000          1030000   23.314269      20.818429      2.4958395      410.83245      4.2190787      1000000      
 2080000          1040000   11.458878      12.868987     -1.410109       253.95755      1.9963758      1000000      
 2100000          1050000   10.705682      17.397086     -6.6914044      343.3154       3.5949467      1000000      
 2120000          1060000   19.990698      16.344487      3.6462116      322.54333     -6.4137389      1000000      
 2140000          1070000   14.190513      21.545208     -7.3546949      425.17476      1.9503802      1000000      
 2160000          1080000   12.015456      18.9079       -6.8924437      373.12991     -1.4840624      1000000      
 2180000          1090000   24.965958      27.915886     -2.9499282      550.89419     -3.3222214      1000000      
 2200000          1100000   16.057685      22.429337     -6.3716524      442.62223      0.18448262     1000000      
 2220000          1110000   12.670702      21.717534     -9.0468322      428.57545     -0.34297741     1000000      
 2240000          1120000   15.764233      16.254905     -0.49067241     320.77552     -7.2389311      1000000      
 2260000          1130000   28.444346      28.597303     -0.15295713     564.34133      1.9956088      1000000      
 2280000          1140000   7.9495346      16.067682     -8.1181474      317.08084      0.76836144     1000000      
 2300000          1150000   18.858204      19.276334     -0.4181302      380.40062     -6.376341       1000000      
 2320000          1160000   8.963995       18.539434     -9.575439       365.85858      0.033841076    1000000      
 2340000          1170000   16.18035       21.104038     -4.9236878      416.46868      2.2284457      1000000      
 2360000          1180000   14.168063      18.667355     -4.4992917      368.38298     -3.5251879      1000000      
 2380000          1190000   24.998078      25.962124     -0.9640463      512.33851     -2.2373599      1000000      
 2400000          1200000   10.702623      15.969441     -5.2668177      315.14215     -1.2619636      1000000      
 2420000          1210000   14.784964      20.574607     -5.7896439      406.02085      1.6292849      1000000      
 2440000          1220000   13.402616      22.455968     -9.0533522      443.14776     -3.1957987      1000000      
 2460000          1230000   13.007076      18.223832     -5.2167564      359.63047      2.1034521      1000000      
 2480000          1240000   17.908693      22.28164      -4.3729468      439.70755      0.38424198     1000000      
 2500000          1250000   14.289113      19.748768     -5.459655       389.72366      0.89982435     1000000      
 2520000          1260000   26.256879      23.637837      2.6190417      466.47086      2.4954525      1000000      
 2540000          1270000   17.965128      20.723482     -2.7583538      408.95875     -1.2973763      1000000      
 2560000          1280000   17.822683      13.441101      4.3815823      265.24769     -4.926829       1000000      
 2580000          1290000   11.093543      19.553336     -8.4597931      385.86701     -1.0675447      1000000      
 2600000          1300000   25.345928      28.599065     -3.2531373      564.3761       2.5007453      1000000      
 2620000          1310000   18.604931      25.913949     -7.3090179      511.38782      1.3866881      1000000      
 2640000          1320000   21.669697      20.434066      1.235631       403.2474      -1.9777832      1000000      
 2660000          1330000   20.583232      24.683252     -4.1000201      487.10114      2.1369102      1000000      
 2680000          1340000   18.408133      17.885605      0.52252844     352.95587      0.11050605     1000000      
 2700000          1350000   8.5103644      12.445999     -3.9356351      245.61029     -0.33819982     1000000      
 2720000          1360000   26.090171      27.870394     -1.7802229      549.99644     -6.4731306      1000000      
 2740000          1370000   8.3578505      15.977668     -7.619818       315.30451      2.1228238      1000000      
 2760000          1380000   22.735494      26.392907     -3.6574131      520.83961      0.26748261     1000000      
 2780000          1390000   30.629317      30.105882      0.52343497     594.11173      2.6313576      1000000      
 2800000          1400000   23.719368      22.929397      0.78997077     452.49045      1.4555239      1000000      
 2820000          1410000   14.740007      14.452653      0.2873548      285.20973     -1.94739        1000000      
 2840000          1420000   11.13753       12.938041     -1.8005106      255.32027     -3.2597139      1000000      
 2860000          1430000   13.217067      19.687243     -6.470176       388.50952     -2.4886428      1000000      
 2880000          1440000   12.828745      13.709009     -0.88026411     270.53461     -0.79308996     1000000      
 2900000          1450000   16.431932      21.088091     -4.6561585      416.15397     -1.1486475      1000000      
 2920000          1460000   13.948318      17.788221     -3.8399033      351.0341       0.97089062     1000000      
 2940000          1470000   17.216898      19.520686     -2.3037882      385.22268     -1.1196541      1000000      
 2960000          1480000   29.306016      31.290194     -1.9841786      617.48305      3.1050041      1000000      
 2980000          1490000   20.159405      20.457152     -0.29774738     403.70298     -5.6574865      1000000      
 3000000          1500000   20.484197      25.008986     -4.5247889      493.52921      1.3981766      1000000      
 3020000          1510000   20.179387      23.967057     -3.7876695      472.9677       1.6151023      1000000      
 3040000          1520000   18.815132      21.874213     -3.0590817      431.66737      1.3258706      1000000      
 3060000          1530000   22.725582      24.925417     -2.1998347      491.88004      1.0929588      1000000      
 3080000          1540000   20.944904      19.655416      1.289488       387.88146      1.7871475      1000000      
 3100000          1550000   18.263601      24.017317     -5.7537162      473.95954      0.38325485     1000000      
 3120000          1560000   8.2003418      16.428114     -8.2277727      324.19364      3.1962024      1000000      
 3140000          1570000   19.707615      18.345975      1.3616397      362.04085     -0.24782647     1000000      
 3160000          1580000   18.093621      21.638118     -3.5444971      427.00825      2.968869       1000000      
 3180000          1590000   8.2670284      12.86719      -4.6001611      253.92208      1.6821979      1000000      
 3200000          1600000   16.743308      19.112958     -2.36965        377.17656     -1.454466       1000000      
 3220000          1610000   11.990355      15.325221     -3.3348664      302.42907      4.0007198      1000000      
 3240000          1620000   18.434375      21.773688     -3.3393128      429.6836       1.4445031      1000000      
 3260000          1630000   15.447169      21.641811     -6.1946425      427.08113      1.5195762      1000000      
 3280000          1640000   13.553414      18.850653     -5.2972395      372.0002      -1.3970525      1000000      
 3300000          1650000   15.131673      22.768711     -7.6370383      449.31945      0.61622702     1000000      
 3320000          1660000   6.6712716      16.793236     -10.121964      331.39897      2.0737437      1000000      
 3340000          1670000   15.478688      19.520833     -4.0421452      385.22559      0.57583227     1000000      
 3360000          1680000   12.509505      18.162796     -5.6532909      358.42598     -0.39763148     1000000      
 3380000          1690000   22.526534      25.036795     -2.5102607      494.07799     -0.51724947     1000000      
 3400000          1700000   16.423028      21.244227     -4.8211988      419.23518      0.1474323      1000000      
 3420000          1710000   12.375906      14.76346      -2.387554       291.34323     -2.7714348      1000000      
 3440000          1720000   18.217676      27.74838      -9.5307046      547.58862     -3.5576252      1000000      
 3460000          1730000   20.395253      21.21308      -0.81782625     418.62051      1.9648411      1000000      
 3480000          1740000   17.840823      22.787431     -4.9466085      449.68888     -2.4530171      1000000      
 3500000          1750000   10.438227      17.520173     -7.0819461      345.74442      0.51329624     1000000      
 3520000          1760000   26.028915      22.853002      3.1759127      450.98285     -2.7050021      1000000      
 3540000          1770000   11.514909      16.399238     -4.8843295      323.6238       0.35989951     1000000      
 3560000          1780000   15.922518      21.64202      -5.719502       427.08525     -0.32096319     1000000      
 3580000          1790000   24.361869      22.149962      2.211907       437.10902      3.1872631      1000000      
 3600000          1800000   34.0099        30.304543      3.7053565      598.03213     -6.0932621      1000000      
 3620000          1810000   18.54593       20.366972     -1.8210424      401.92336     -6.3867071      1000000      
 3640000          1820000   14.901495      19.839321     -4.9378258      391.51064      1.6393026      1000000      
 3660000          1830000   13.742498      22.895613     -9.1531155      451.82375      0.0019803357   1000000      
 3680000          1840000   22.773201      23.1766       -0.40339902     457.36876      0.17108914     1000000      
 3700000          1850000   14.049391      22.932623     -8.8832319      452.55411      2.3251572      1000000      
 3720000          1860000   15.187689      19.508045     -4.320355       384.97322     -2.6546794      1000000      
 3740000          1870000   11.634571      19.536549     -7.9019782      385.53573      0.88993058     1000000      
 3760000          1880000   15.852975      16.182379     -0.32940338     319.34428     -0.20501559     1000000      
 3780000          1890000   16.663553      21.479151     -4.8155982      423.87118      1.3805616      1000000      
 3800000          1900000   15.51244       20.933007     -5.4205664      413.09352     -1.2108251      1000000      
 3820000          1910000   9.0908181      18.000459     -8.9096408      355.22241     -0.45623554     1000000      
 3840000          1920000   7.677105       13.638262     -5.9611567      269.13848     -1.887295       1000000      
 3860000          1930000   19.047205      24.188394     -5.1411895      477.33559     -0.13740289     1000000      
 3880000          1940000   24.795152      27.511821     -2.7166684      542.92034     -1.2445531      1000000      
 3900000          1950000   16.661332      17.160766     -0.49943415     338.65185     -6.276397       1000000      
 3920000          1960000   5.9595104      13.81202      -7.85251        272.56745     -2.3081307      1000000      
 3940000          1970000   17.300828      22.818838     -5.51801        450.30866      0.93212816     1000000      
 3960000          1980000   15.596599      20.251029     -4.6544306      399.63534      1.4823846      1000000      
 3980000          1990000   22.296063      25.516745     -3.2206826      503.54937     -0.46422398     1000000      
 4000000          2000000   11.953507      16.215376     -4.2618692      319.99544      1.364957       1000000      
 4020000          2010000   16.651992      19.999138     -3.347146       394.66449     -2.5345589      1000000      
 4040000          2020000   17.261424      18.105369     -0.84394424     357.2927      -0.97334901     1000000      
 4060000          2030000   19.605716      17.947017      1.6586992      354.16778     -1.8267079      1000000      
 4080000          2040000   20.917287      20.525182      0.3921055      405.04547     -0.27022084     1000000      
 4100000          2050000   14.579542      16.931498     -2.3519558      334.12745     -2.8928419      1000000      
 4120000          2060000   16.302071      19.462029     -3.1599584      384.06515      2.8827787      1000000      
 4140000          2070000   14.904629      15.533852     -0.62922353     306.5462       1.1382087      1000000      
 4160000          2080000   14.104445      21.696156     -7.591711       428.15357     -3.1978843      1000000      
 4180000          2090000   14.919862      17.730451     -2.810589       349.89406     -1.0472469      1000000      
 4200000          2100000   10.906794      14.999901     -4.0931067      296.00918     -1.3396532      1000000      
 4220000          2110000   8.4094741      13.842299     -5.432825       273.16497     -5.8603342      1000000      
 4240000          2120000   20.47484       22.332771     -1.8579309      440.71657     -1.3403632      1000000      
 4260000          2130000   27.570364      26.971035      0.59932857     532.24843     -2.221221       1000000      
 4280000          2140000   14.852397      19.195299     -4.3429014      378.80147      6.6839676      1000000      
 4300000          2150000   26.04919       30.815018     -4.7658278      608.10587     -0.87243542     1000000      
 4320000          2160000   13.625218      18.317697     -4.6924785      361.4828       1.3685464      1000000      
 4340000          2170000   14.919255      22.765586     -7.8463303      449.25778     -4.0988815      1000000      
 4360000          2180000   19.34956       18.916978      0.4325823      373.30906      0.90711922     1000000      
 4380000          2190000   15.373606      18.491005     -3.1173997      364.90289     -0.23169732     1000000      
 4400000          2200000   18.302087      18.284847      0.017239598    360.83454      1.5036352      1000000      
 4420000          2210000   26.210963      26.797152     -0.58618958     528.81702      1.2727993      1000000      
 4440000          2220000   28.294238      23.644191      4.6500472      466.59624      0.9779193      1000000      
 4460000          2230000   15.128483      20.047305     -4.9188225      395.61502      4.4805466      1000000      
 4480000          2240000   21.134037      22.818549     -1.684512       450.30296      0.89803492     1000000      
 4500000          2250000   14.079136      19.177801     -5.0986657      378.45617     -1.5110368      1000000      
 4520000          2260000   13.698281      19.994428     -6.2961478      394.57155     -0.49514668     1000000      
 4540000          2270000   17.148614      19.652132     -2.5035179      387.81664      1.3575541      1000000      
 4560000          2280000   12.811018      17.613406     -4.8023884      347.58429      1.6971853      1000000      
 4580000          2290000   16.354762      20.549828     -4.1950657      405.53185     -1.9815904      1000000      
 4600000          2300000   18.064365      24.652769     -6.5884033      486.49959     -0.00085370435  1000000      
 4620000          2310000   22.715529      20.590382      2.1251474      406.33215     -5.2074904      1000000      
 4640000          2320000   16.068739      19.573175     -3.5044359      386.25851      0.54733331     1000000      
 4660000          2330000   1.1316771      12.897131     -11.765454      254.51296     -0.41542995     1000000      
 4680000          2340000   16.552664      17.282293     -0.72962888     341.05007     -2.7602822      1000000      
 4700000          2350000   15.883999      18.450916     -2.5669164      364.11176      3.0095576      1000000      
 4720000          2360000   14.275651      17.3038       -3.028149       341.47448     -0.61811222     1000000      
 4740000          2370000   14.51139       18.69287      -4.1814801      368.88651     -0.75342482     1000000      
 4760000          2380000   12.46831       21.547751     -9.0794406      425.22493      2.1693642      1000000      
 4780000          2390000   13.821089      19.472656     -5.6515674      384.27486     -0.48358862     1000000      
 4800000          2400000   15.87078       17.474229     -1.6034497      344.83776      4.0916172      1000000      
 4820000          2410000   28.313003      21.475189      6.8378138      423.79299      2.9576313      1000000      
 4840000          2420000   14.400687      19.920641     -5.5199537      393.11542     -0.84219172     1000000      
 4860000          2430000   16.053075      19.109247     -3.0561722      377.10332     -1.2979773      1000000      
 4880000          2440000   34.960419      31.05593       3.9044885      612.86006      3.3974091      1000000      
 4900000          2450000   16.217909      16.757303     -0.53939448     330.68988     -1.7990915      1000000      
 4920000          2460000   16.347926      17.942411     -1.594485       354.07688     -0.014774723    1000000      
 4940000          2470000   13.134078      17.745443     -4.6113647      350.1899      -1.5459385      1000000      
 4960000          2480000   13.754981      17.76225      -4.0072694      350.52158      1.0354202      1000000      
 4980000          2490000   13.74912       16.20399      -2.4548708      319.77076     -2.3360849      1000000      
 5000000          2500000   13.425895      20.93689      -7.5109958      413.17017      0.15813246     1000000      
 5020000          2510000   15.497402      23.491585     -7.9941834      463.58471      0.36295326     1000000      
 5040000          2520000   21.378621      23.801801     -2.4231795      469.70652      3.1200125      1000000      
 5060000          2530000   17.568638      21.714342     -4.145704       428.51246      2.5351327      1000000      
 5080000          2540000   19.121438      23.768405     -4.6469665      469.04748      2.241369       1000000      
 5100000          2550000   9.5430191      17.927413     -8.3843938      353.78091      1.2814909      1000000      
 5120000          2560000   9.993097       18.409        -8.4159029      363.28459      3.2047393      1000000      
 5140000          2570000   19.854615      21.944507     -2.0898925      433.05456      4.7240471      1000000      
 5160000          2580000   13.943443      19.383141     -5.4396985      382.50837     -4.9692683      1000000      
 5180000          2590000   21.564895      23.531054     -1.9661587      464.36358      2.5805866      1000000      
 5200000          2600000   17.809499      16.798133      1.0113656      331.49563      1.2407425      1000000      
 5220000          2610000   21.37841       20.525211      0.85319859     405.04606     -0.81278888     1000000      
 5240000          2620000   18.677353      27.80101      -9.1236568      548.62722      2.5988405      1000000      
 5260000          2630000   11.598364      16.828976     -5.2306125      332.10429     -0.78819388     1000000      
 5280000          2640000   24.737514      23.675915      1.0615996      467.22228      2.7316797      1000000      
 5300000          2650000   12.220893      14.110662     -1.8897695      278.46087      4.036265       1000000      
 5320000          2660000   11.812638      20.90731      -9.0946721      412.58643      2.1430248      1000000      
 5340000          2670000   18.970713      20.457356     -1.4866427      403.707        0.37757455     1000000      
 5360000          2680000   28.592495      24.645057      3.9474375      486.34741      1.7289633      1000000      
 5380000          2690000   15.43954       19.171153     -3.7316125      378.32497     -1.3974286      1000000      
 5400000          2700000   19.689142      15.3933        4.2958422      303.77254      3.1978028      1000000      
 5420000          2710000   17.833285      19.815816     -1.9825312      391.0468       0.66385664     1000000      
 5440000          2720000   17.757284      21.9631       -4.2058156      433.42146      0.302498       1000000      
 5460000          2730000   15.829347      14.90128       0.92806734     294.06298     -3.6166919      1000000      
 5480000          2740000   12.197982      16.299981     -4.1019982      321.66504      0.29998687     1000000      
 5500000          2750000   16.242011      18.345532     -2.103521       362.03211      0.23398119     1000000      
 5520000          2760000   23.895278      21.281261      2.6140174      419.966        3.4394782      1000000      
 5540000          2770000   16.737955      20.363496     -3.6255411      401.85475     -0.058283686    1000000      
 5560000          2780000   14.632727      20.046513     -5.4137857      395.59939     -0.81228498     1000000      
 5580000          2790000   23.488017      20.808398      2.6796184      410.63449     -3.3068324      1000000      
 5600000          2800000   13.352656      18.935881     -5.5832243      373.68209     -0.1855038      1000000      
 5620000          2810000   12.217316      20.022832     -7.805516       395.13208      2.6498661      1000000      
 5640000          2820000   12.333709      20.044005     -7.7102953      395.5499       4.3123833      1000000      
 5660000          2830000   15.162218      15.886084     -0.72386576     313.49717     -1.5542687      1000000      
 5680000          2840000   19.117818      17.242794      1.8750249      340.27058     -0.5738547      1000000      
 5700000          2850000   5.3522237      12.18195      -6.8297267      240.39953     -2.6028947      1000000      
 5720000          2860000   17.854691      18.627479     -0.77278807     367.59607      1.9858807      1000000      
 5740000          2870000   21.258082      20.430253      0.82782926     403.17215     -0.33650254     1000000      
 5760000          2880000   23.430147      20.875958      2.5541889      411.96773      1.5962664      1000000      
 5780000          2890000   14.347523      16.401298     -2.0537744      323.66444      2.2314597      1000000      
 5800000          2900000   30.286139      18.190168      12.095971      358.96614     -4.5082028      1000000      
 5820000          2910000   15.213521      20.521085     -5.3075638      404.96463     -0.58485758     1000000      
 5840000          2920000   21.487517      16.278567      5.2089496      321.24246      1.8032299      1000000      
 5860000          2930000   18.5318        22.157563     -3.6257627      437.25901      3.6221255      1000000      
 5880000          2940000   16.087059      15.605188      0.48187051     307.95396     -0.3129161      1000000      
 5900000          2950000   25.077867      21.93786       3.1400065      432.92338     -4.0453233      1000000      
 5920000          2960000   19.662194      23.789574     -4.1273806      469.46524      0.90480973     1000000      
 5940000          2970000   11.850008      17.426604     -5.576596       343.89791      3.72186        1000000      
 5960000          2980000   16.108227      20.043424     -3.9351972      395.53844      0.39909213     1000000      
 5980000          2990000   14.233043      20.715603     -6.4825602      408.80327     -0.32785449     1000000      
 6000000          3000000   20.783497      21.673402     -0.8899049      427.70454     -2.3724042      1000000      
 6020000          3010000   16.216624      18.039548     -1.8229237      355.9938      -3.1046986      1000000      
 6040000          3020000   19.987023      17.767999      2.2190246      350.63502      2.4555714      1000000      
 6060000          3030000   10.003362      18.477703     -8.4743406      364.64037     -3.0759997      1000000      
 6080000          3040000   10.119707      15.819206     -5.6994986      312.17739      2.3600386      1000000      
 6100000          3050000   5.142614       13.875245     -8.7326312      273.81513     -1.1323089      1000000      
 6120000          3060000   18.777027      17.976623      0.8004042      354.75202      2.1987677      1000000      
 6140000          3070000   15.554295      18.692978     -3.1386831      368.88863      0.74969607     1000000      
 6160000          3080000   23.347634      22.880361      0.46727309     451.52275     -1.0978078      1000000      
 6180000          3090000   19.345637      19.113888      0.23174852     377.19491      4.5284198      1000000      
 6200000          3100000   22.449449      26.534363     -4.0849136      523.63111     -2.7268015      1000000      
 6220000          3110000   20.722868      25.383818     -4.6609504      500.92617     -0.21379342     1000000      
 6240000          3120000   12.33377       18.302964     -5.9691935      361.19206     -0.85414406     1000000      
 6260000          3130000   24.475487      23.934402      0.54108494     472.32328      0.18170826     1000000      
 6280000          3140000   23.029562      28.894514     -5.8649519      570.20651     -5.6468074      1000000      
 6300000          3150000   19.200708      24.119148     -4.9184406      475.96908     -5.0482819      1000000      
 6320000          3160000   17.93192       16.610909      1.3210107      327.80093     -1.9159604      1000000      
 6340000          3170000   22.424712      23.435674     -1.0109626      462.48136     -1.4359208      1000000      
 6360000          3180000   23.605121      24.955461     -1.3503403      492.47295      3.8634807      1000000      
 6380000          3190000   14.096611      16.381889     -2.2852777      323.28142      0.31374783     1000000      
 6400000          3200000   19.72054       20.541626     -0.8210866      405.36999     -0.53398013     1000000      
 6420000          3210000   14.275839      18.864492     -4.5886534      372.2733      -5.1116612      1000000      
 6440000          3220000   15.403861      20.604906     -5.2010452      406.61876      3.1981808      1000000      
 6460000          3230000   25.101919      24.83543       0.26648924     490.10424     -4.9790903      1000000      
 6480000          3240000   19.292659      22.344003     -3.0513441      440.93824     -1.8960244      1000000      
 6500000          3250000   18.925009      20.359137     -1.4341281      401.76875     -2.5330826      1000000      
 6520000          3260000   13.821178      20.159563     -6.3383846      397.83033      1.8867744      1000000      
 6540000          3270000   12.852369      18.305693     -5.4533241      361.24591     -7.9933326      1000000      
 6560000          3280000   15.615559      14.834839      0.78072023     292.75182      0.69167827     1000000      
 6580000          3290000   18.067975      15.601863      2.4661127      307.88833     -2.8231355      1000000      
 6600000          3300000   10.23057       14.613787     -4.3832171      288.38957      3.4800133      1000000      
 6620000          3310000   15.159479      22.707766     -7.5482871      448.11677     -3.4052424      1000000      
 6640000          3320000   26.039808      23.659619      2.3801891      466.90069      6.0217653      1000000      
 6660000          3330000   18.35842       24.487887     -6.1294671      483.24581      1.5599515      1000000      
 6680000          3340000   12.892764      18.255304     -5.3625405      360.25155     -1.9811137      1000000      
 6700000          3350000   18.3759        20.435663     -2.0597629      403.27891     -1.0595595      1000000      
 6720000          3360000   13.542471      16.232471     -2.6900004      320.33281     -2.2492835      1000000      
 6740000          3370000   16.759439      21.203915     -4.4444753      418.43964      1.7663017      1000000      
 6760000          3380000   17.445769      16.636438      0.80933108     328.30471     -0.14651561     1000000      
 6780000          3390000   16.83854       21.769753     -4.9312137      429.60595     -0.32722561     1000000      
 6800000          3400000   26.524436      27.58748      -1.0630443      544.4134      -2.4316162      1000000      
 6820000          3410000   21.343976      19.102899      2.2410769      376.97804     -1.07091        1000000      
 6840000          3420000   19.132791      21.213735     -2.0809446      418.63344      1.6366021      1000000      
 6860000          3430000   11.18054       15.790254     -4.6097143      311.60606      2.3815581      1000000      
 6880000          3440000   29.697165      26.130686      3.5664784      515.66493     -1.3495765      1000000      
 6900000          3450000   22.11047       28.004911     -5.8944411      552.65102      1.5287182      1000000      
 6920000          3460000   8.9216436      17.977766     -9.0561224      354.77459      1.1231125      1000000      
 6940000          3470000   12.271619      18.590072     -6.3184533      366.85789      5.2929326      1000000      
 6960000          3480000   26.780428      24.854142      1.926286       490.47351      1.0206783      1000000      
 6980000          3490000   12.428481      18.63393      -6.2054486      367.72337      2.7319409      1000000      
 7000000          3500000   21.93138       23.573482     -1.6421017      465.20087     -0.17068895     1000000      
 7020000          3510000   18.708185      22.000806     -3.292621       434.16557      2.3374738      1000000      
 7040000          3520000   20.057057      23.235354     -3.1782967      458.52822      1.5890464      1000000      
 7060000          3530000   25.810662      28.98638      -3.1757185      572.0194      -1.9326292      1000000      
 7080000          3540000   18.128428      24.308213     -6.1797853      479.7001      -2.6483682      1000000      
 7100000          3550000   14.541867      16.167136     -1.6252688      319.04347      3.7999911      1000000      
 7120000          3560000   29.835774      31.686024     -1.8502502      625.29439      0.5170717      1000000      
 7140000          3570000   10.287101      17.877989     -7.5908886      352.80559      0.68786702     1000000      
 7160000          3580000   16.367493      18.09407      -1.7265765      357.06973     -1.5503114      1000000      
 7180000          3590000   13.244507      21.807113     -8.5626057      430.3432      -1.5342987      1000000      
 7200000          3600000   19.502487      23.295594     -3.7931074      459.71701     -3.8874001      1000000      
 7220000          3610000   19.541383      21.580832     -2.0394486      425.87776     -3.4891267      1000000      
 7240000          3620000   12.916155      17.471696     -4.5555409      344.78776      3.2309608      1000000      
 7260000          3630000   15.325938      17.733961     -2.4080232      349.96331     -1.3661166      1000000      
 7280000          3640000   10.32304       18.421633     -8.0985932      363.53389     -2.626386       1000000      
 7300000          3650000   25.158489      19.991504      5.1669857      394.51383     -1.9105355      1000000      
 7320000          3660000   21.661952      16.919567      4.7423854      333.892        0.73788646     1000000      
 7340000          3670000   15.40058       19.744679     -4.3440993      389.64298      0.71268634     1000000      
 7360000          3680000   19.979168      20.167179     -0.18801042     397.98062      4.3596158      1000000      
 7380000          3690000   15.262555      21.837038     -6.5744829      430.93374     -3.4179402      1000000      
 7400000          3700000   20.842109      18.164618      2.6774904      358.46195     -6.3126047      1000000      
 7420000          3710000   10.768887      19.063248     -8.2943611      376.19556      1.9768512      1000000      
 7440000          3720000   6.3230271      18.162265     -11.839238      358.4155       3.2983788      1000000      
 7460000          3730000   16.822202      15.31582       1.5063818      302.24354      4.0669427      1000000      
 7480000          3740000   17.837507      20.581473     -2.743966       406.15634      2.1707585      1000000      
 7500000          3750000   15.916765      17.725617     -1.808852       349.79865      1.6154057      1000000      
 7520000          3760000   11.68844       16.4361       -4.7476604      324.35123      1.818442       1000000      
 7540000          3770000   19.905701      22.378374     -2.4726731      441.61652      2.2221065      1000000      
 7560000          3780000   18.731669      16.074461      2.6572071      317.21463     -1.9006683      1000000      
 7580000          3790000   23.340093      23.760533     -0.4204401      468.89215      4.280592       1000000      
 7600000          3800000   17.254793      19.523795     -2.2690022      385.28404      0.58381383     1000000      
 7620000          3810000   18.074116      19.870081     -1.7959651      392.11767     -3.4758264      1000000      
 7640000          3820000   29.129005      27.324409      1.8045965      539.22193     -3.2712875      1000000      
 7660000          3830000   26.479335      28.339745     -1.8604101      559.25866      2.1204152      1000000      
 7680000          3840000   25.245912      24.765857      0.48005533     488.73128      0.71614456     1000000      
 7700000          3850000   10.115757      16.49322      -6.3774627      325.47844      1.1264978      1000000      
 7720000          3860000   12.056804      14.556505     -2.4997009      287.25916      1.7004132      1000000      
 7740000          3870000   11.119396      17.846517     -6.7271212      352.18451     -1.5667924      1000000      
 7760000          3880000   17.981507      18.044313     -0.06280572     356.08783     -1.0774599      1000000      
 7780000          3890000   13.970888      18.209037     -4.2381493      359.3385      -1.7946465      1000000      
 7800000          3900000   18.164919      19.304277     -1.1393578      380.95205     -2.6964703      1000000      
 7820000          3910000   9.6124411      20.879636     -11.267195      412.0403       1.6717794      1000000      
 7840000          3920000   11.297682      16.531141     -5.2334588      326.22677     -1.468701       1000000      
 7860000          3930000   9.9894247      12.168145     -2.1787199      240.12708     -0.68447011     1000000      
 7880000          3940000   13.524336      19.367672     -5.8433361      382.20309     -1.0088632      1000000      
 7900000          3950000   13.815174      19.797487     -5.9823129      390.6851      -0.05475026     1000000      
 7920000          3960000   13.622656      15.76903      -2.1463743      311.18723     -1.3920102      1000000      
 7940000          3970000   15.208693      22.121812     -6.9131188      436.5535       1.5918718      1000000      
 7960000          3980000   16.466077      18.981479     -2.5154023      374.58194      1.2989895      1000000      
 7980000          3990000   27.528862      20.172695      7.3561666      398.08948     -1.002418       1000000      
 8000000          4000000   12.5731        18.604002     -6.0309024      367.13277      2.7773064      1000000      
 8020000          4010000   17.736398      23.378763     -5.6423653      461.35827     -1.6177594      1000000      
 8040000          4020000   22.467503      17.632134      4.835369       347.95386      4.6743898      1000000      
 8060000          4030000   27.324351      23.001643      4.3227077      453.91615      1.1420087      1000000      
 8080000          4040000   22.269876      26.259116     -3.98924        518.19936     -3.1053849      1000000      
 8100000          4050000   17.610025      18.779705     -1.1696799      370.60011     -2.7784414      1000000      
 8120000          4060000   17.9433        20.483962     -2.540662       404.23205     -2.5209056      1000000      
 8140000          4070000   18.432905      17.747173      0.68573204     350.22405      5.4416694      1000000      
 8160000          4080000   21.278448      18.459343      2.819105       364.27807     -3.8110793      1000000      
 8180000          4090000   16.466287      19.985561     -3.5192739      394.39656     -0.33684718     1000000      
 8200000          4100000   10.684322      20.873818     -10.189496      411.92548     -1.1156558      1000000      
 8220000          4110000   14.91326       23.254665     -8.3414049      458.90931      2.298232       1000000      
 8240000          4120000   15.402836      21.636049     -6.233213       426.96741      2.318353       1000000      
 8260000          4130000   14.580162      20.215732     -5.6355705      398.93878     -3.0914077      1000000      
 8280000          4140000   15.204405      17.756338     -2.551933       350.40491     -0.059545806    1000000      
 8300000          4150000   10.558787      13.11791      -2.5591227      258.86981      0.97579488     1000000      
 8320000          4160000   9.0230565      17.594973     -8.5719167      347.22052      2.7316331      1000000      
 8340000          4170000   16.790527      18.008232     -1.2177047      355.3758      -1.5040251      1000000      
 8360000          4180000   14.529368      16.582592     -2.0532245      327.24212      0.10853752     1000000      
 8380000          4190000   24.612565      21.410334      3.2022317      422.51313      0.57564413     1000000      
 8400000          4200000   30.708909      25.652529      5.05638        506.22893     -0.81671141     1000000      
 8420000          4210000   15.645949      20.051826     -4.405877       395.70425     -1.9131707      1000000      
 8440000          4220000   20.640247      24.547747     -3.9074998      484.42707      1.9940241      1000000      
 8460000          4230000   20.743763      19.487689      1.2560738      384.57152     -1.6096353      1000000      
 8480000          4240000   27.041127      27.192489     -0.151362       536.61862     -6.78888        1000000      
 8500000          4250000   18.322645      20.352855     -2.0302097      401.64477      1.7632739      1000000      
 8520000          4260000   13.979974      16.577794     -2.5978199      327.14743      0.55379709     1000000      
 8540000          4270000   19.891736      13.499817      6.3919188      266.40641     -2.2564076      1000000      
 8560000          4280000   18.515053      22.699211     -4.1841586      447.94794      2.193054       1000000      
 8580000          4290000   16.673591      24.074478     -7.4008876      475.08756      0.65892789     1000000      
 8600000          4300000   18.95542       23.535236     -4.5798163      464.44611      0.026205055    1000000      
 8620000          4310000   20.588425      19.366291      1.2221347      382.17584     -1.4366222      1000000      
 8640000          4320000   20.206998      17.514508      2.6924903      345.63262     -0.97256232     1000000      
 8660000          4330000   13.998122      15.907688     -1.9095665      313.92352      1.3548971      1000000      
 8680000          4340000   21.630196      30.167425     -8.5372288      595.32624      1.0468525      1000000      
 8700000          4350000   19.514404      19.574306     -0.059902033    386.28083     -1.029577       1000000      
 8720000          4360000   16.747066      22.164852     -5.4177866      437.40286      2.2273131      1000000      
 8740000          4370000   22.926478      23.442755     -0.51627733     462.62109      1.7419228      1000000      
 8760000          4380000   18.881197      19.941785     -1.0605885      393.53269     -4.3819637      1000000      
 8780000          4390000   23.512103      29.899258     -6.3871551      590.03421      4.7094892      1000000      
 8800000          4400000   17.966336      21.056498     -3.0901624      415.53052     -3.0134214      1000000      
 8820000          4410000   16.125928      21.779991     -5.6540628      429.80798     -2.6292684      1000000      
 8840000          4420000   18.61034       23.453869     -4.8435288      462.84041      2.1965064      1000000      
 8860000          4430000   10.869013      17.787355     -6.9183413      351.01699      2.4910608      1000000      
 8880000          4440000   11.199335      16.551477     -5.3521424      326.62809      5.3835293      1000000      
 8900000          4450000   23.969828      26.503691     -2.5338629      523.02583     -2.0016216      1000000      
 8920000          4460000   22.01537       21.139789      0.87558059     417.17419      2.4431715      1000000      
 8940000          4470000   13.151885      14.589141     -1.4372564      287.90321      0.38034986     1000000      
 8960000          4480000   6.7618723      12.912106     -6.1502334      254.80846      3.1172878      1000000      
 8980000          4490000   19.501311      18.792339      0.70897185     370.84943     -1.3601141      1000000      
 9000000          4500000   21.358729      19.753006      1.6057234      389.8073       0.42048624     1000000      
 9020000          4510000   27.221338      24.578424      2.6429132      485.03247     -5.0094174      1000000      
 9040000          4520000   14.961194      20.685292     -5.7240985      408.20511      2.2872878      1000000      
 9060000          4530000   15.439303      16.478514     -1.0392114      325.18824     -4.2889954      1000000      
 9080000          4540000   8.8298166      15.334503     -6.5046863      302.61223     -0.56420464     1000000      
 9100000          4550000   13.149233      19.573444     -6.4242105      386.26381      1.4205963      1000000      
 9120000          4560000   18.984359      19.314808     -0.33044847     381.15986      2.8845882      1000000      
 9140000          4570000   26.493582      22.798578      3.6950045      449.90884     -4.2497963      1000000      
 9160000          4580000   11.466084      13.684565     -2.2184808      270.05224     -3.5756607      1000000      
 9180000          4590000   11.312791      19.060985     -7.7481932      376.1509      -0.10686572     1000000      
 9200000          4600000   16.958724      17.926634     -0.96791071     353.76555      3.2282564      1000000      
 9220000          4610000   15.328129      19.216057     -3.8879286      379.21112     -2.4911556      1000000      
 9240000          4620000   18.6781        21.488796     -2.8106955      424.06151      3.6823473      1000000      
 9260000          4630000   17.821197      18.976342     -1.155145       374.48055      0.84497054     1000000      
 9280000          4640000   15.91121       17.665866     -1.7546553      348.61952      1.6252634      1000000      
 9300000          4650000   26.593568      26.031682      0.56188679     513.71116      1.502735       1000000      
 9320000          4660000   20.027716      20.473805     -0.44608883     404.0316       1.4229012      1000000      
 9340000          4670000   13.932526      16.740268     -2.8077417      330.3537       1.5374783      1000000      
 9360000          4680000   17.557437      20.35612      -2.7986829      401.7092      -1.4975174      1000000      
 9380000          4690000   19.99482       21.567002     -1.5721823      425.60485      2.0629102      1000000      
 9400000          4700000   16.435596      18.481063     -2.0454673      364.70668     -3.9184745      1000000      
 9420000          4710000   27.645818      28.797137     -1.1513186      568.28486      1.2523988      1000000      
 9440000          4720000   13.53977       19.409345     -5.8695746      383.02547     -1.3726633      1000000      
 9460000          4730000   17.639837      19.222285     -1.5824479      379.33402     -1.7660541      1000000      
 9480000          4740000   16.091028      19.927846     -3.8368173      393.2576      -3.8454019      1000000      
 9500000          4750000   16.168556      15.325439      0.84311654     302.43337     -2.9034166      1000000      
 9520000          4760000   18.324609      17.06538       1.2592291      336.76949     -1.8507684      1000000      
 9540000          4770000   22.469151      30.25829      -7.7891387      597.11936      1.7217018      1000000      
 9560000          4780000   19.554796      23.662458     -4.1076622      466.95673      1.3119824      1000000      
 9580000          4790000   16.233128      20.249169     -4.0160405      399.59862      1.2636169      1000000      
 9600000          4800000   19.431803      20.526198     -1.0943944      405.06553     -1.4113694      1000000      
 9620000          4810000   9.3985586      15.337583     -5.9390248      302.67302     -2.46714        1000000      
 9640000          4820000   18.84284       21.942746     -3.0999066      433.0198      -1.20376        1000000      
 9660000          4830000   11.589123      14.732675     -3.1435519      290.73571      1.4866283      1000000      
 9680000          4840000   12.852083      13.278079     -0.425996       262.0306      -1.8931902      1000000      
 9700000          4850000   20.990012      20.700749      0.2892623      408.51014     -1.2965227      1000000      
 9720000          4860000   10.300419      13.118962     -2.8185436      258.89058     -1.1449678      1000000      
 9740000          4870000   14.810281      15.852884     -1.0426037      312.84201     -0.36782639     1000000      
 9760000          4880000   19.155167      21.392386     -2.237219       422.15895      3.5649808      1000000      
 9780000          4890000   20.660209      19.260998      1.3992115      380.09797     -1.0150005      1000000      
 9800000          4900000   14.616221      18.005155     -3.3889345      355.31509     -1.1501505      1000000      
 9820000          4910000   16.521227      20.513686     -3.9924588      404.81862     -2.4956822      1000000      
 9840000          4920000   9.4277036      18.96999      -9.5422867      374.35521      0.04703609     1000000      
 9860000          4930000   15.211577      17.320324     -2.1087469      341.80058      0.37655435     1000000      
 9880000          4940000   21.9278        26.633711     -4.7059103      525.59165     -2.8423988      1000000      
 9900000          4950000   17.370269      17.561719     -0.19145        346.56427     -1.1448341      1000000      
 9920000          4960000   14.17632       20.847407     -6.6710869      411.4043      -0.35569646     1000000      
 9940000          4970000   16.539923      16.72176      -0.18183707     329.98848     -3.8602009      1000000      
 9960000          4980000   9.5167215      14.987207     -5.4704856      295.75867     -1.8935304      1000000      
 9980000          4990000   13.108972      16.617767     -3.5087954      327.93627      3.6159351      1000000      
 10000000         5000000   23.574026      24.054515     -0.48048915     474.6936       1.4696585      1000000      
 10020000         5010000   12.038061      17.805648     -5.7675867      351.37799     -2.7385713      1000000      
 10040000         5020000   18.115226      20.119071     -2.003845       397.03126     -4.7030513      1000000      
 10060000         5030000   25.61223       22.764951      2.8472786      449.24526      0.68099527     1000000      
 10080000         5040000   25.250308      22.544475      2.7058332      444.89435     -2.4611847      1000000      
 10100000         5050000   16.42003       11.031898      5.3881322      217.70429     -2.5426282      1000000      
 10120000         5060000   19.599505      21.178007     -1.5785017      417.92838     -4.0415045      1000000      
 10140000         5070000   8.8119292      15.629179     -6.8172496      308.42739      1.1917057      1000000      
 10160000         5080000   21.450623      19.909642      1.540981       392.89836      2.7616015      1000000      
 10180000         5090000   12.718739      15.180934     -2.4621953      299.5817      -0.37784753     1000000      
 10200000         5100000   15.888682      16.885717     -0.99703473     333.22401     -1.1701018      1000000      
 10220000         5110000   13.833708      17.079699     -3.2459907      337.05206      0.52752949     1000000      
 10240000         5120000   18.132246      19.17575      -1.0435038      378.4157       1.9376365      1000000      
 10260000         5130000   13.79637       17.267079     -3.4707092      340.74983     -0.12090897     1000000      
 10280000         5140000   9.234969       18.317632     -9.0826631      361.48153      0.70617297     1000000      
 10300000         5150000   24.660906      21.668119      2.9927869      427.6003       1.3962151      1000000      
 10320000         5160000   11.155571      22.249589     -11.094018      439.07506     -1.5089597      1000000      
 10340000         5170000   13.334135      21.25388      -7.9197455      419.42566     -4.0912917      1000000      
 10360000         5180000   19.760213      15.224563      4.5356497      300.44268     -0.60056402     1000000      
 10380000         5190000   18.128909      19.537323     -1.4084145      385.551        3.3326046      1000000      
 10400000         5200000   12.003888      18.526057     -6.5221681      365.59459     -1.9051403      1000000      
 10420000         5210000   19.32496       22.837638     -3.5126773      450.67965     -0.17522928     1000000      
 10440000         5220000   17.828228      22.525489     -4.6972614      444.51969     -1.2876028      1000000      
 10460000         5230000   13.905791      16.155084     -2.249293       318.80563     -1.7791654      1000000      
 10480000         5240000   7.5534293      18.269288     -10.715859      360.52751     -0.9723364      1000000      
 10500000         5250000   11.337491      18.363739     -7.026248       362.39141      2.9292291      1000000      
 10520000         5260000   16.763872      20.291304     -3.5274328      400.43013     -2.8731815      1000000      
 10540000         5270000   20.125808      19.988832      0.13697632     394.46112     -1.7055605      1000000      
 10560000         5280000   12.654723      15.917086     -3.2623625      314.10896      2.3340933      1000000      
 10580000         5290000   19.869379      21.117786     -1.2484067      416.73998     -3.2337799      1000000      
 10600000         5300000   9.0379776      15.444325     -6.4063475      304.77947      2.139286       1000000      
 10620000         5310000   23.407005      24.456101     -1.0490961      482.61853      2.5623248      1000000      
 10640000         5320000   12.337478      18.57656      -6.2390823      366.59124      0.52923043     1000000      
 10660000         5330000   17.42574       21.045186     -3.6194462      415.30729     -2.980204       1000000      
 10680000         5340000   22.741242      23.063741     -0.32249972     455.14161      0.28386883     1000000      
 10700000         5350000   19.642904      22.319527     -2.6766226      440.45521      1.937116       1000000      
 10720000         5360000   19.762625      22.292046     -2.5294205      439.91291      1.2854779      1000000      
 10740000         5370000   17.186309      24.425961     -7.2396525      482.02375      0.31810992     1000000      
 10760000         5380000   18.136814      20.858797     -2.7219833      411.62907     -0.91145809     1000000      
 10780000         5390000   13.87617       20.951226     -7.0750559      413.45306      1.5733625      1000000      
 10800000         5400000   21.454897      18.724214      2.7306827      369.50505     -2.0058456      1000000      
 10820000         5410000   20.131143      19.54464       0.58650275     385.6954       3.2842023      1000000      
 10840000         5420000   17.956102      21.744247     -3.7881454      429.10261      1.5424791      1000000      
 10860000         5430000   24.719285      22.684923      2.0343614      447.66598     -2.332197       1000000      
 10880000         5440000   20.063885      21.14361      -1.0797243      417.24958      1.6079571      1000000      
 10900000         5450000   18.352544      19.036971     -0.68442661     375.67701      0.19093365     1000000      
 10920000         5460000   21.823183      19.694054      2.1291292      388.64395      2.4918059      1000000      
 10940000         5470000   16.58041       19.543327     -2.962916       385.66947     -0.17088638     1000000      
 10960000         5480000   17.34949       23.470495     -6.1210044      463.16851     -4.5960108      1000000      
 10980000         5490000   20.177602      20.465875     -0.28827367     403.87512     -0.21838266     1000000      
 11000000         5500000   11.910833      19.371992     -7.4611594      382.28835     -1.4465828      1000000      
 11020000         5510000   30.23734       18.67054       11.566801      368.44583      1.5321895      1000000      
 11040000         5520000   19.152126      24.165096     -5.0129703      476.87582     -3.845551       1000000      
 11060000         5530000   28.650842      26.789139      1.8617023      528.65889     -5.0105468      1000000      
 11080000         5540000   21.884566      28.295395     -6.4108285      558.38345     -5.0571435      1000000      
 11100000         5550000   31.419104      29.114646      2.3044572      574.55062     -2.0036475      1000000      
 11120000         5560000   25.380374      24.725742      0.65463261     487.93964      2.5546876      1000000      
 11140000         5570000   27.821834      24.963924      2.8579101      492.63995      0.43345978     1000000      
 11160000         5580000   12.088831      14.921527     -2.8326967      294.46254      2.8436674      1000000      
 11180000         5590000   29.390455      25.656082      3.7343735      506.29905      2.5397882      1000000      
 11200000         5600000   17.515887      22.49492      -4.9790329      443.91643      0.76470126     1000000      
 11220000         5610000   21.292696      24.217518     -2.9248224      477.91032     -3.5939999      1000000      
 11240000         5620000   15.756731      22.650911     -6.8941807      446.99478      4.9401954      1000000      
 11260000         5630000   28.925382      27.093125      1.8322569      534.65777      2.5702818      1000000      
 11280000         5640000   21.728784      25.03768      -3.3088961      494.09546      1.1989212      1000000      
 11300000         5650000   13.875717      18.954619     -5.078902       374.05188      2.805328       1000000      
 11320000         5660000   17.384689      17.041448      0.3432405      336.29722     -0.27894784     1000000      
 11340000         5670000   13.204659      15.082301     -1.8776417      297.63525     -0.21592821     1000000      
 11360000         5680000   15.919132      23.97645      -8.0573179      473.15306     -0.64253754     1000000      
 11380000         5690000   15.770103      16.438159     -0.66805526     324.39186      0.83387967     1000000      
 11400000         5700000   14.842798      19.880036     -5.0372375      392.31412      2.4582884      1000000      
 11420000         5710000   21.326086      28.969159     -7.6430724      571.67955      3.8117156      1000000      
 11440000         5720000   20.273893      17.765639      2.508254       350.58846     -2.9427141      1000000      
 11460000         5730000   28.180778      27.084888      1.0958903      534.49522      5.7515449      1000000      
 11480000         5740000   15.877028      21.943515     -6.0664874      433.03498     -4.3491308      1000000      
 11500000         5750000   30.09308       28.335479      1.7576015      559.17447      1.5286377      1000000      
 11520000         5760000   18.023797      15.093123      2.9306736      297.84883      0.82441882     1000000      
 11540000         5770000   22.477248      24.502527     -2.0252789      483.5347      -0.16720323     1000000      
 11560000         5780000   20.830496      25.813864     -4.9833671      509.41272     -1.4554624      1000000      
 11580000         5790000   6.396915       12.986916     -6.5900007      256.28477     -0.22403404     1000000      
 11600000         5800000   19.903304      23.031391     -3.1280878      454.50321      0.78373309     1000000      
 11620000         5810000   15.45537       17.726498     -2.2711274      349.81604      3.1888067      1000000      
 11640000         5820000   19.344529      21.921647     -2.5771179      432.60342     -4.335737       1000000      
 11660000         5830000   19.489365      24.611857     -5.1224916      485.69223      2.044631       1000000      
 11680000         5840000   23.031727      21.979864      1.0518627      433.75229      3.0906301      1000000      
 11700000         5850000   27.220279      27.440994     -0.22071438     541.52263      3.2936515      1000000      
 11720000         5860000   13.677558      15.515425     -1.837867       306.18256      2.6827846      1000000      
 11740000         5870000   22.937343      16.266585      6.6707581      321.00601     -5.0454914      1000000      
 11760000         5880000   21.776023      25.512503     -3.7364797      503.46565     -1.4781125      1000000      
 11780000         5890000   7.9274253      15.232642     -7.3052169      300.60211      5.5355652      1000000      
 11800000         5900000   22.905626      23.325055     -0.41942954     460.29839      7.6834906      1000000      
 11820000         5910000   21.730187      21.370824      0.35936324     421.73344     -1.2074355      1000000      
 11840000         5920000   21.219141      22.204944     -0.98580373     438.19404      3.2100842      1000000      
 11860000         5930000   14.004985      16.637325     -2.6323403      328.32222      0.96929697     1000000      
 11880000         5940000   17.780387      20.365904     -2.5855179      401.90229      1.7124902      1000000      
 11900000         5950000   26.746208      17.363825      9.3823831      342.65903     -2.0775281      1000000      
 11920000         5960000   12.804496      17.278277     -4.4737816      340.97082      5.3012929      1000000      
 11940000         5970000   23.814208      23.865907     -0.051698306    470.97159      2.2065809      1000000      
 11960000         5980000   23.977639      27.96834      -3.9907007      551.92932      2.8572656      1000000      
 11980000         5990000   9.7433873      12.566646     -2.8232589      247.99114      0.0050287025   1000000      
 12000000         6000000   22.580709      21.624816      0.95589302     426.74574      5.2444874      1000000      
 12020000         6010000   23.13813       24.192918     -1.0547875      477.42485      2.6807408      1000000      
 12040000         6020000   9.0556371      15.170611     -6.1149737      299.37797      1.1786758      1000000      
 12060000         6030000   18.340243      24.250238     -5.9099945      478.55602      2.1286144      1000000      
 12080000         6040000   12.32776       18.089868     -5.7621083      356.98682     -0.7673521      1000000      
 12100000         6050000   8.1479099      13.874005     -5.7260946      273.79065     -3.358944       1000000      
 12120000         6060000   17.888645      21.446463     -3.557818       423.22611     -0.87907973     1000000      
 12140000         6070000   16.335451      18.064082     -1.7286311      356.47795     -1.6556194      1000000      
 12160000         6080000   17.514588      22.423651     -4.9090632      442.51001      3.0853451      1000000      
 12180000         6090000   23.88934       28.109239     -4.2198995      554.70984      2.2375555      1000000      
 12200000         6100000   14.51509       23.534784     -9.0196945      464.4372      -0.91257025     1000000      
 12220000         6110000   17.961974      22.836462     -4.8744875      450.65645      0.21688276     1000000      
 12240000         6120000   12.779592      15.694797     -2.915205       309.72231     -3.3194772      1000000      
 12260000         6130000   16.066966      17.25601      -1.1890438      340.53139     -0.94051727     1000000      
 12280000         6140000   23.712169      20.463979      3.2481902      403.8377      -0.63451454     1000000      
 12300000         6150000   22.795596      27.228647     -4.4330512      537.33217     -0.24534051     1000000      
 12320000         6160000   23.514885      20.769644      2.7452409      409.86972      1.4076644      1000000      
 12340000         6170000   20.496098      16.159882      4.3362159      318.90032     -1.247533       1000000      
 12360000         6180000   13.975126      18.613466     -4.6383397      367.31953     -1.4023118      1000000      
 12380000         6190000   17.636077      23.638555     -6.0024778      466.48502     -1.5754059      1000000      
 12400000         6200000   18.649534      16.364809      2.2847258      322.94436     -0.25636759     1000000      
 12420000         6210000   20.481949      19.262012      1.2199371      380.11798     -2.9482234      1000000      
 12440000         6220000   18.159562      19.572044     -1.4124825      386.23619     -2.2604229      1000000      
 12460000         6230000   20.205229      18.872835      1.332394       372.43794      1.2145934      1000000      
 12480000         6240000   20.620074      19.205928      1.4141455      379.01123     -2.9489538      1000000      
 12500000         6250000   7.3359022      15.552578     -8.2166758      306.91574     -3.2436347      1000000      
 12520000         6260000   12.991128      19.746722     -6.7555946      389.6833       1.7068738      1000000      
 12540000         6270000   13.372633      22.685551     -9.3129189      447.67838      1.3671368      1000000      
 12560000         6280000   12.437368      15.226908     -2.7895394      300.48894      0.43154359     1000000      
 12580000         6290000   17.784268      19.820107     -2.0358389      391.13147     -3.9613504      1000000      
 12600000         6300000   18.892074      22.457634     -3.5655598      443.18063      2.32185        1000000      
 12620000         6310000   18.321072      14.819089      3.5019831      292.44101      0.015578081    1000000      
 12640000         6320000   32.171336      26.734493      5.4368427      527.5805       0.44237693     1000000      
 12660000         6330000   20.318431      24.107695     -3.7892644      475.74307      0.17841997     1000000      
 12680000         6340000   23.23626       27.020608     -3.7843477      533.2267       0.044361359    1000000      
 12700000         6350000   16.864732      18.040878     -1.1761461      356.02004      3.0903152      1000000      
 12720000         6360000   20.197915      22.758794     -2.5608791      449.12374      3.7462499      1000000      
 12740000         6370000   17.998519      13.5619        4.4366192      267.63155      0.0066041064   1000000      
 12760000         6380000   16.673372      20.158327     -3.484955       397.80594      1.1185654      1000000      
 12780000         6390000   21.288228      22.939523     -1.6512952      452.69028     -0.80013818     1000000      
 12800000         6400000   20.977669      15.387415      5.590254       303.6564       2.9410084      1000000      
 12820000         6410000   21.768016      21.407846      0.3601694      422.46405     -2.2554315      1000000      
 12840000         6420000   16.157822      22.047288     -5.8894666      435.08285     -0.59367503     1000000      
 12860000         6430000   24.611354      25.579571     -0.9682177      504.78918     -1.3044299      1000000      
 12880000         6440000   17.000111      20.069975     -3.0698639      396.0624      -0.64631997     1000000      
 12900000         6450000   14.941882      18.991568     -4.0496868      374.78103      1.0587556      1000000      
 12920000         6460000   13.04055       19.77378      -6.7332299      390.21726     -3.3478391      1000000      
 12940000         6470000   13.210755      19.754708     -6.5439523      389.84089     -0.39369616     1000000      
 12960000         6480000   22.688475      24.234913     -1.5464387      478.2536       0.94139627     1000000      
 12980000         6490000   6.1502848      15.592727     -9.4424418      307.70804     -0.15109678     1000000      
 13000000         6500000   10.251509      17.976609     -7.7250998      354.75175     -2.1505659      1000000      
 13020000         6510000   16.319301      18.607572     -2.2882712      367.20323     -1.9521703      1000000      
 13040000         6520000   13.562367      21.75342      -8.1910528      429.28363     -1.1911132      1000000      
 13060000         6530000   16.306719      18.309481     -2.0027619      361.32067     -0.60959425     1000000      
 13080000         6540000   10.222015      16.613869     -6.3918544      327.85934      0.50400415     1000000      
 13100000         6550000   11.381151      17.900584     -6.519433       353.25146     -1.4479858      1000000      
 13120000         6560000   27.155237      20.01836       7.1368771      395.04382     -1.2448003      1000000      
 13140000         6570000   18.430078      16.926062      1.5040167      334.02017      0.38433895     1000000      
 13160000         6580000   25.246163      23.206989      2.0391735      457.96847     -1.5493876      1000000      
 13180000         6590000   12.253261      16.076071     -3.8228105      317.2464      -0.82105436     1000000      
[...]
 96820000        48410000   21.267249      25.729713     -4.4624645      507.75209      0.73196391     1000000      
 96840000        48420000   24.626534      24.029179      0.59735471     474.19362     -3.1227182      1000000      
 96860000        48430000   29.409739      24.120072      5.2896673      475.98731      0.41436756     1000000      
 96880000        48440000   19.244276      17.238681      2.0055956      340.18942      1.201658       1000000      
 96900000        48450000   25.549455      26.98362      -1.4341651      532.49679     -3.4127287      1000000      
 96920000        48460000   23.847711      23.246922      0.60078887     458.75651     -2.5279571      1000000      
 96940000        48470000   15.348307      18.56954      -3.2212339      366.45271      2.1003956      1000000      
 96960000        48480000   28.804357      29.577562     -0.77320501     583.68584     -0.64861714     1000000      
 96980000        48490000   28.75339       24.829173      3.9242171      489.98077      0.23890656     1000000      
 97000000        48500000   21.859936      24.375295     -2.5153589      481.02391      3.2787545      1000000      
 97020000        48510000   24.199126      25.366014     -1.1668886      500.57483     -0.93578104     1000000      
 97040000        48520000   20.087753      19.912146      0.17560659     392.94779      0.353222       1000000      
 97060000        48530000   23.070972      25.785942     -2.7149694      508.86171     -5.3568806      1000000      
 97080000        48540000   17.57315       15.703204      1.869946       309.88821      1.6437946      1000000      
 97100000        48550000   17.798024      17.01419       0.78383366     335.7593      -2.4775871      1000000      
 97120000        48560000   12.954396      16.358941     -3.4045453      322.82857      3.022382       1000000      
 97140000        48570000   16.50968       20.841844     -4.3321646      411.29452     -5.5522609      1000000      
 97160000        48580000   19.166877      18.728333      0.43854346     369.58634      4.1430073      1000000      
 97180000        48590000   19.786348      21.068023     -1.2816743      415.75794     -2.5938048      1000000      
 97200000        48600000   14.769836      19.84483      -5.0749939      391.61936     -0.984716       1000000      
 97220000        48610000   9.8829388      16.425551     -6.5426121      324.14306      2.8936655      1000000      
 97240000        48620000   21.032741      22.990015     -1.9572746      453.68669      4.0616782      1000000      
 97260000        48630000   21.590342      28.274563     -6.6842209      557.97235     -0.17818593     1000000      
 97280000        48640000   18.378501      22.719544     -4.3410424      448.34918      0.68674852     1000000      
 97300000        48650000   21.227258      20.433599      0.79365923     403.23817     -3.8176776      1000000      
 97320000        48660000   11.961053      14.393039     -2.4319855      284.0333      -1.2034369      1000000      
 97340000        48670000   18.567804      21.933682     -3.3658781      432.84092     -0.42762254     1000000      
 97360000        48680000   19.983497      24.988462     -5.004965       493.12418     -3.3944388      1000000      
 97380000        48690000   17.437866      20.423498     -2.9856314      403.03883     -5.3193363      1000000      
 97400000        48700000   17.841569      18.914764     -1.0731948      373.26537      2.1507989      1000000      
 97420000        48710000   14.808141      16.69234      -1.8841989      329.4079      -1.7190093      1000000      
 97440000        48720000   8.8852103      16.788368     -7.903158       331.30292      0.81736908     1000000      
 97460000        48730000   23.235186      19.508538      3.7266479      384.98295     -0.94966508     1000000      
 97480000        48740000   29.457129      32.442661     -2.9855319      640.2259      -1.1650614      1000000      
 97500000        48750000   24.521961      25.032522     -0.51056126     493.99368     -0.78970446     1000000      
 97520000        48760000   12.578051      16.451799     -3.8737478      324.66103     -1.3999481      1000000      
 97540000        48770000   11.818666      16.96371      -5.1450441      334.76313     -3.9796182      1000000      
 97560000        48780000   33.48382       23.65726       9.8265599      466.85416      0.25414506     1000000      
 97580000        48790000   19.071688      22.639372     -3.5676841      446.76706     -4.3307625      1000000      
 97600000        48800000   16.513741      20.633397     -4.1196557      407.181       -0.95908567     1000000      
 97620000        48810000   4.9130111      12.545192     -7.6321806      247.56776     -1.0116551      1000000      
 97640000        48820000   18.916226      21.064865     -2.1486396      415.69563     -0.035234541    1000000      
 97660000        48830000   21.023975      21.450086     -0.42611144     423.29762     -3.8066709      1000000      
 97680000        48840000   26.724423      20.304165      6.4202585      400.68392      2.5705333      1000000      
 97700000        48850000   13.644675      14.312069     -0.66739407     282.43544      1.5281225      1000000      
 97720000        48860000   18.590663      19.950649     -1.3599857      393.7076      -4.4419513      1000000      
 97740000        48870000   26.955184      25.974602      0.98058198     512.58474      0.51411268     1000000      
 97760000        48880000   20.625034      17.081664      3.5433695      337.09084     -2.8105333      1000000      
 97780000        48890000   14.498777      20.934849     -6.4360722      413.12989     -1.9109751      1000000      
 97800000        48900000   16.897484      19.151382     -2.2538985      377.93482      0.1397162      1000000      
 97820000        48910000   14.334516      20.266488     -5.9319722      399.9404       1.7225256      1000000      
 97840000        48920000   24.928355      21.697713      3.230642       428.1843      -2.9227325      1000000      
 97860000        48930000   14.543374      17.395595     -2.8522203      343.28597      1.0264152      1000000      
 97880000        48940000   23.797947      13.87102       9.9269267      273.73175     -1.9363765      1000000      
 97900000        48950000   23.826111      18.078857      5.747254       356.76951      0.48424704     1000000      
 97920000        48960000   27.801616      25.963647      1.8379689      512.36856      5.4179484      1000000      
 97940000        48970000   12.705727      16.296846     -3.5911192      321.60319      6.5643967      1000000      
 97960000        48980000   22.890268      24.356252     -1.4659843      480.64811     -0.09167652     1000000      
 97980000        48990000   25.852684      26.995622     -1.1429385      532.73363      4.4836147      1000000      
 98000000        49000000   23.911204      17.33286       6.5783439      342.04796      2.7664406      1000000      
 98020000        49010000   20.005032      24.067668     -4.0626357      474.95317     -0.24915483     1000000      
 98040000        49020000   19.123147      22.093552     -2.9704056      435.99582      1.116995       1000000      
 98060000        49030000   16.107118      18.226612     -2.1194947      359.68533      3.1286298      1000000      
 98080000        49040000   15.052591      18.85851      -3.8059196      372.15526      0.32454973     1000000      
 98100000        49050000   20.438731      21.073555     -0.6348246      415.86712     -0.41673685     1000000      
 98120000        49060000   21.931655      21.65214       0.27951433     427.28497     -2.6128823      1000000      
 98140000        49070000   15.408178      17.735863     -2.3276851      350.00085     -2.0796027      1000000      
 98160000        49080000   14.850385      15.76875      -0.91836528     311.1817       1.0403838      1000000      
 98180000        49090000   15.606093      15.608089     -0.0019958909   308.0112       0.44159465     1000000      
 98200000        49100000   19.872765      22.204252     -2.3314864      438.18037      3.9585084      1000000      
 98220000        49110000   18.472532      22.766645     -4.2941129      449.27868     -3.5314701      1000000      
 98240000        49120000   8.8578355      11.507185     -2.6493495      227.08365      0.2891796      1000000      
 98260000        49130000   16.540817      18.717169     -2.176352       369.36602      2.2514697      1000000      
 98280000        49140000   32.039248      30.672976      1.3662719      605.30281     -2.8127267      1000000      
 98300000        49150000   12.123083      20.949017     -8.8259343      413.40948      1.1526582      1000000      
 98320000        49160000   14.583153      19.035003     -4.4518504      375.63819      2.1149713      1000000      
 98340000        49170000   17.93439       23.403227     -5.4688368      461.84103     -2.0582401      1000000      
 98360000        49180000   23.860368      21.043034      2.8173346      415.2648      -4.3075943      1000000      
 98380000        49190000   8.3969111      14.623134     -6.226223       288.57403     -3.7252256      1000000      
 98400000        49200000   18.759618      19.197831     -0.43821282     378.85143      1.175636       1000000      
 98420000        49210000   18.199313      14.091798      4.1075154      278.0886       3.4214826      1000000      
 98440000        49220000   18.453948      17.706878      0.74707013     349.42885      1.0088886      1000000      
 98460000        49230000   7.4222899      16.221441     -8.7991514      320.11514     -1.7637939      1000000      
 98480000        49240000   21.889558      18.901248      2.9883095      372.99866     -6.1189114      1000000      
 98500000        49250000   17.783946      15.612987      2.1709595      308.10786     -1.8867255      1000000      
 98520000        49260000   21.418176      22.417734     -0.99955802     442.39325     -0.86369786     1000000      
 98540000        49270000   23.668449      19.918061      3.7503886      393.0645      -3.2512462      1000000      
 98560000        49280000   19.777895      14.9324        4.8454945      294.67711      1.61287        1000000      
 98580000        49290000   25.17918       19.645838      5.5333425      387.69244     -3.1888643      1000000      
 98600000        49300000   18.042969      22.79501      -4.7520406      449.83843      1.1889196      1000000      
 98620000        49310000   18.587749      24.108756     -5.5210066      475.76399     -2.0307427      1000000      
 98640000        49320000   19.252636      25.251354     -5.9987178      498.31212     -2.0694813      1000000      
 98660000        49330000   23.537284      28.396728     -4.859444       560.38316      0.06674644     1000000      
 98680000        49340000   23.556697      16.408041      7.1486564      323.79751     -3.3728908      1000000      
 98700000        49350000   12.71144       15.034506     -2.3230658      296.69207      2.0324162      1000000      
 98720000        49360000   14.958387      15.863411     -0.90502354     313.04973     -1.6529754      1000000      
 98740000        49370000   18.763112      19.585092     -0.82197963     386.49368     -1.0465407      1000000      
 98760000        49380000   22.730115      21.276371      1.453744       419.86951      0.32995574     1000000      
 98780000        49390000   15.240391      17.520886     -2.2804948      345.75847      1.2981265      1000000      
 98800000        49400000   19.439532      19.678481     -0.23894873     388.33663     -4.8140927      1000000      
 98820000        49410000   9.8754383      15.174113     -5.2986743      299.44708      0.89274863     1000000      
 98840000        49420000   19.374948      25.082763     -5.7078149      494.98513     -2.1994744      1000000      
 98860000        49430000   15.364148      14.864019      0.50012905     293.32766      2.9418775      1000000      
 98880000        49440000   12.73506       19.30935      -6.5742898      381.05215     -1.1681136      1000000      
 98900000        49450000   12.342306      21.006663     -8.6643569      414.54706     -4.7028686      1000000      
 98920000        49460000   19.100099      24.919027     -5.818928       491.75394      2.0594644      1000000      
 98940000        49470000   20.169635      22.556354     -2.3867194      445.12878      3.1823175      1000000      
 98960000        49480000   15.560515      17.192919     -1.6324036      339.28635     -0.49886235     1000000      
 98980000        49490000   22.65271       19.601982      3.050728       386.82699     -0.44774111     1000000      
 99000000        49500000   25.018115      24.199073      0.81904122     477.54633     -4.3895699      1000000      
 99020000        49510000   14.078917      18.123748     -4.0448303      357.6554       2.4943023      1000000      
 99040000        49520000   20.333578      21.902169     -1.568591       432.21904      0.91288294     1000000      
 99060000        49530000   16.227193      18.859346     -2.6321534      372.17175      1.2022904      1000000      
 99080000        49540000   15.148699      23.625147     -8.4764478      466.22042      0.70486292     1000000      
 99100000        49550000   23.901873      24.429572     -0.52769888     482.095       -0.66784916     1000000      
 99120000        49560000   21.795722      25.576563     -3.7808411      504.72982      0.15674393     1000000      
 99140000        49570000   19.344821      15.340775      4.0040462      302.73601     -0.086850465    1000000      
 99160000        49580000   24.365016      20.901914      3.4631017      412.47994      2.221059       1000000      
 99180000        49590000   18.943721      20.393471     -1.4497507      402.44629      0.41182604     1000000      
 99200000        49600000   14.554957      15.051388     -0.4964312      297.02522     -2.0695107      1000000      
 99220000        49610000   11.370403      21.60244      -10.232037      426.30418     -2.1946676      1000000      
 99240000        49620000   21.138809      20.460828      0.67798158     403.77551     -0.40691202     1000000      
 99260000        49630000   34.041934      28.899489      5.1424449      570.30469     -1.0474214      1000000      
 99280000        49640000   19.995964      20.504737     -0.50877278     404.64202      2.0204794      1000000      
 99300000        49650000   20.61394       23.538886     -2.9249456      464.51814     -7.4486639      1000000      
 99320000        49660000   17.311698      22.194991     -4.8832934      437.99762     -2.7124611      1000000      
 99340000        49670000   19.404931      17.704075      1.7008559      349.37354      1.7691459      1000000      
 99360000        49680000   33.781562      25.826792      7.9547697      509.66786     -1.6410163      1000000      
 99380000        49690000   13.361333      18.571647     -5.2103136      366.49427     -0.106392       1000000      
 99400000        49700000   26.825861      20.005835      6.8200261      394.79665      3.9105024      1000000      
 99420000        49710000   13.639495      15.185431     -1.5459364      299.67044      1.1741179      1000000      
 99440000        49720000   21.242969      14.736693      6.5062758      290.81501     -7.4820836      1000000      
 99460000        49730000   26.275661      25.307167      0.96849383     499.41353      1.9265864      1000000      
 99480000        49740000   34.957152      21.892013      13.065139      432.01863     -3.5154124      1000000      
 99500000        49750000   20.418782      20.099693      0.31908829     396.64886     -1.3389871      1000000      
 99520000        49760000   16.194593      18.003263     -1.8086704      355.27775      2.3668011      1000000      
 99540000        49770000   18.469812      16.954864      1.5149476      334.58856      7.8075461      1000000      
 99560000        49780000   26.001274      21.467999      4.5332749      423.65111      2.4713258      1000000      
 99580000        49790000   12.740884      15.75397      -3.013086       310.89003     -3.0754471      1000000      
 99600000        49800000   21.90175       16.207612      5.6941383      319.84224     -1.4881265      1000000      
 99620000        49810000   15.69672       19.197483     -3.5007633      378.84458      2.3291346      1000000      
 99640000        49820000   12.775965      16.82736      -4.0513952      332.07239     -1.8028649      1000000      
 99660000        49830000   20.836906      21.827048     -0.99014176     430.7366      -4.82028        1000000      
 99680000        49840000   22.500528      22.731559     -0.23103131     448.5863      -2.3230061      1000000      
 99700000        49850000   20.29311       21.405259     -1.1121486      422.41299     -4.778634       1000000      
 99720000        49860000   23.841238      21.902484      1.9387536      432.22526      0.097434832    1000000      
 99740000        49870000   14.392253      16.05261      -1.6603563      316.78341     -6.8358076      1000000      
 99760000        49880000   22.073608      20.121175      1.9524337      397.07277     -2.8022725      1000000      
 99780000        49890000   11.893678      17.273144     -5.3794657      340.86952     -2.7713714      1000000      
 99800000        49900000   12.473186      17.06786      -4.5946734      336.81843      2.4845561      1000000      
 99820000        49910000   16.787957      22.176734     -5.3887778      437.63734     -0.4803109      1000000      
 99840000        49920000   13.74866       16.500227     -2.751567       325.61672      1.1045176      1000000      
 99860000        49930000   25.818482      21.041458      4.7770241      415.23371      4.7346515      1000000      
 99880000        49940000   22.496352      18.422693      4.0736592      363.55481      1.1757505      1000000      
 99900000        49950000   25.645252      17.739424      7.9058288      350.07112     -0.84982446     1000000      
 99920000        49960000   11.682025      17.082        -5.3999754      337.09748     -0.062279873    1000000      
 99940000        49970000   9.4336332      14.027083     -4.5934496      276.81151     -1.650401       1000000      
 99960000        49980000   24.904604      21.831585      3.0730198      430.82613     -0.28403343     1000000      
 99980000        49990000   21.074274      27.295412     -6.2211376      538.6497      -3.1074932      1000000      
 1e+08           50000000   19.384237      19.836652     -0.4524153      391.45798     -2.3435784      1000000      
Loop time of 1139.91 on 2 procs for 50000000 steps with 22 atoms

Performance: 7579.567 ns/day, 0.003 hours/ns, 43863.236 timesteps/s
98.7% CPU use with 2 MPI tasks x 1 OpenMP threads

MPI task timing breakdown:
Section |  min time  |  avg time  |  max time  |%varavg| %total
---------------------------------------------------------------
Pair    | 75.521     | 137.61     | 199.7      | 529.3 | 12.07
Bond    | 230.82     | 234.65     | 238.48     |  25.0 | 20.59
Neigh   | 0          | 0          | 0          |   0.0 |  0.00
Comm    | 124.26     | 202.8      | 281.34     | 551.5 | 17.79
Output  | 9.0004     | 9.0126     | 9.0247     |   0.4 |  0.79
Modify  | 534.22     | 541.97     | 549.73     |  33.3 | 47.55
Other   |            | 13.85      |            |       |  1.22

Nlocal:             11 ave          12 max          10 min
Histogram: 1 0 0 0 0 0 0 0 0 1
Nghost:             11 ave          12 max          10 min
Histogram: 1 0 0 0 0 0 0 0 0 1
Neighs:             87 ave         128 max          46 min
Histogram: 1 0 0 0 0 0 0 0 0 1

Total # of neighbors = 174
Ave neighs/atom = 7.9090909
Ave special neighs/atom = 8.9090909
Neighbor list builds = 0
Dangerous builds = 0
#run 1
Total wall time: 0:19:00
