22
 Atoms. Timestep: 0
1 2.01779 1.03521 0.0542168
2 1.99982 2.12507 0.0537912
1 1.42525 2.48449 0.907481
1 1.53261 2.48234 -0.863909
3 3.42229 2.65979 0.138902
4 4.36072 1.89845 0.36316
5 3.58793 3.96035 -0.113838
6 2.78583 4.54372 -0.304681
2 4.89196 4.59059 -0.0675044
7 5.44322 4.23385 0.802522
2 5.66168 4.23494 -1.33541
1 5.10887 4.58554 -2.20695
1 6.64185 4.71111 -1.31033
1 5.78513 3.15349 -1.39319
3 4.72224 6.10041 0.0215211
4 3.60351 6.60576 -0.0398724
5 5.8431 6.82427 0.0735167
6 6.74176 6.36349 0.087587
2 5.82098 8.27337 0.056973
7 4.78809 8.62153 0.0518147
7 6.33024 8.65563 0.941632
7 6.32889 8.63281 -0.837972
22
 Atoms. Timestep: 10000
1 5.58604 8.42184 -1.072
2 5.14401 7.64871 -1.70048
1 5.87586 7.48928 -2.49235
1 4.13099 7.71597 -2.09721
3 5.20895 6.22286 -1.03413
4 5.86236 5.33829 -1.43651
5 4.54415 6.09725 0.077172
6 3.84102 6.80337 0.241862
2 4.64697 4.9408 0.984383
7 5.68403 4.62884 0.860671
2 4.36094 5.28993 2.45869
1 3.38154 5.76836 2.4574
1 4.27809 4.42707 3.11956
1 5.04834 6.04322 2.84359
3 3.86033 3.77496 0.459163
4 2.70561 3.63242 0.81529
5 4.26905 2.8363 -0.455069
6 5.10452 3.06485 -0.974559
2 3.41044 1.70949 -0.95898
7 4.10749 0.901945 -1.18284
7 2.67189 1.37037 -0.232593
7 2.88107 2.09674 -1.82957
22
 Atoms. Timestep: 20000
1 2.40208 2.76363 1.49071
2 2.70195 2.10341 0.676895
1 1.81837 1.88616 0.0767373
1 3.11604 1.2092 1.14274
3 3.89381 2.82901 0.0540926
4 4.97934 2.36312 0.320083
5 3.57337 4.02279 -0.487064
6 2.68292 4.48527 -0.3717
2 4.51919 4.86725 -1.15355
7 5.42522 4.35187 -1.47229
2 3.84691 5.22531 -2.50467
1 2.83458 5.58269 -2.3161
1 4.39735 6.03879 -2.9773
1 3.96931 4.35456 -3.14882
3 4.81105 6.09872 -0.290532
4 4.34028 7.24476 -0.479254
5 5.52042 5.80846 0.8676
6 5.63894 4.82285 1.05366
2 5.77858 6.75598 1.89154
7 4.8374 7.12406 2.29995
7 6.20888 6.21299 2.73303
7 6.29866 7.64849 1.54363
22
 Atoms. Timestep: 30000
1 2.37227 2.84275 2.48413
2 1.93936 3.19412 1.54754
1 0.858972 3.22707 1.68813
1 2.20961 2.48028 0.769411
3 2.62964 4.47755 1.12952
4 2.03996 5.57262 1.08856
5 3.89505 4.17478 0.800463
6 4.22737 3.23838 0.981566
2 4.89707 5.15537 0.42215
7 4.43328 6.14167 0.436334
2 5.99404 5.03897 1.5774
1 5.54687 5.43719 2.48819
1 6.25975 3.9944 1.73978
1 6.92729 5.56944 1.38831
3 5.43418 4.80089 -0.977273
4 6.33308 3.94443 -1.12097
5 5.09691 5.61283 -1.92937
6 4.25501 6.16732 -1.86743
2 5.6451 5.47025 -3.34773
7 4.91612 5.75416 -4.10673
7 6.47956 6.17089 -3.31838
7 5.81341 4.43735 -3.65249
22
 Atoms. Timestep: 40000
1 2.69427 7.41786 1.78315
2 2.95147 6.69527 2.55764
1 2.11323 6.24498 3.08935
1 3.65367 7.25423 3.17618
3 3.8305 5.52739 1.94518
4 4.66722 5.10828 2.62229
5 3.64561 5.13096 0.664473
6 3.02393 5.67164 0.0802834
2 4.30464 4.04165 0.00907149
7 5.17695 3.73259 0.58499
2 3.33339 2.86263 0.0796972
1 3.11314 2.38631 1.03507
1 2.43126 3.33225 -0.312409
1 3.84556 2.11667 -0.528034
3 4.8254 4.48969 -1.37531
4 4.48007 5.59955 -1.83946
5 5.5842 3.66348 -2.12496
6 5.75715 2.70183 -1.86916
2 6.2439 4.22001 -3.31356
7 7.27236 3.86063 -3.27869
7 5.7879 3.92906 -4.25988
7 6.3464 5.2961 -3.45363
22
 Atoms. Timestep: 50000
1 7.13758 7.07281 0.0404635
2 6.2239 7.42646 0.518189
1 6.03865 8.41865 0.106668
1 6.52385 7.43542 1.56608
3 5.06745 6.47268 0.363217
4 4.44952 6.18743 1.39808
5 4.72412 5.92192 -0.790271
6 5.25633 6.26015 -1.57924
2 3.62576 4.94798 -1.02005
7 2.76718 5.41036 -0.533062
2 3.27006 4.90891 -2.52616
1 2.74687 5.81733 -2.82477
1 4.06864 4.65456 -3.22307
1 2.58588 4.07695 -2.69304
3 4.01814 3.54497 -0.39255
4 4.34308 2.6186 -1.13305
5 4.00392 3.41594 0.995251
6 3.9113 4.23033 1.58542
2 4.14427 2.04343 1.57292
7 4.94111 1.99581 2.31514
7 3.20724 1.89949 2.11085
7 4.38507 1.34178 0.774291
22
 Atoms. Timestep: 60000
1 5.55549 8.08363 0.578131
2 5.18373 8.01132 -0.443959
1 5.79403 8.3581 -1.27785
1 4.22449 8.51856 -0.54732
3 4.7757 6.59934 -0.640254
4 3.78594 6.44307 -1.32007
5 5.55254 5.562 -0.148196
6 6.40158 5.77173 0.357033
2 5.26208 4.19838 -0.413596
7 4.95866 4.14157 -1.45897
2 6.52457 3.35883 -0.214206
1 7.23367 3.43682 0.609949
1 6.3638 2.28879 -0.345635
1 7.06364 3.72956 -1.08603
3 4.02955 3.7349 0.399789
4 4.23716 3.34283 1.57981
5 2.81975 3.55062 -0.138633
6 2.75503 3.85037 -1.10096
2 1.871 2.65694 0.418877
7 0.886003 3.006 0.108961
7 2.14853 1.63052 0.178964
7 1.88972 2.72487 1.5066
22
 Atoms. Timestep: 70000
1 2.82254 7.96126 -0.818582
2 3.75734 7.94643 -1.37897
1 4.3533 8.85613 -1.30568
1 3.38475 7.86746 -2.40026
3 4.56171 6.65876 -1.17132
4 5.13074 6.32573 -2.21607
5 4.46581 6.01753 0.00383043
6 3.80683 6.48529 0.609644
2 5.10986 4.73356 0.335102
7 5.90445 4.49149 -0.370673
2 5.75134 4.96651 1.68653
1 5.04239 5.38066 2.40345
1 6.23245 4.03801 1.99398
1 6.56844 5.67293 1.54021
3 4.07739 3.55701 0.42675
4 2.9922 3.74577 0.965306
5 4.48954 2.34516 0.0952442
6 5.41003 2.23227 -0.304814
2 3.68609 1.18189 0.340604
7 2.71144 1.32884 -0.124735
7 4.16534 0.261725 0.00638542
7 3.55892 1.08216 1.41855
22
 Atoms. Timestep: 80000
1 3.25736 1.44486 -0.0102794
2 2.89884 1.93728 0.893656
1 3.28012 1.58581 1.85241
1 1.81856 2.07971 0.922034
3 3.39417 3.37173 0.76453
4 2.56943 4.32845 0.93627
5 4.67429 3.55124 0.510819
6 5.23961 2.7163 0.569097
2 5.39214 4.8048 0.501717
7 5.04748 5.32137 1.39752
2 6.89076 4.59281 0.723627
1 7.23921 3.89284 -0.0358015
1 7.35992 5.57312 0.640048
1 7.04208 4.24532 1.74561
3 5.06073 5.64289 -0.72733
4 5.95899 6.15315 -1.40505
5 3.75461 6.02136 -0.937728
6 3.01635 5.63355 -0.367938
2 3.43152 6.88515 -2.09723
7 2.37647 6.81788 -2.36263
7 3.54615 7.91646 -1.76351
7 4.13564 6.66466 -2.89954
22
 Atoms. Timestep: 90000
1 4.99408 8.32795 -1.07562
2 4.24215 8.05047 -0.336916
1 3.32055 7.8937 -0.897435
1 3.98889 8.73714 0.470822
3 4.48532 6.75466 0.327581
4 5.46354 6.60155 1.07102
5 3.61832 5.7571 -0.0219709
6 3.00244 5.91709 -0.806315
2 3.72588 4.37821 0.509228
7 4.30006 4.33124 1.43455
2 2.27029 3.96859 0.996878
1 2.13532 2.93154 1.30414
1 2.08508 4.49383 1.93385
1 1.52146 4.13941 0.223457
3 4.37916 3.58286 -0.555222
4 4.10992 3.82103 -1.70443
5 5.3278 2.71313 -0.162053
6 5.6549 2.73767 0.793195
2 6.22074 1.82135 -0.96114
7 7.22609 1.91376 -0.550235
7 5.92109 0.773744 -0.989973
7 6.21909 2.20829 -1.98015
22
 Atoms. Timestep: 100000
1 3.19543 5.69136 3.41398
2 2.64673 5.12293 2.66304
1 1.86305 5.68613 2.15634
1 2.05482 4.42321 3.25307
3 3.51763 4.56308 1.60484
4 4.512 3.87798 1.90448
5 3.05952 4.76756 0.389018
6 2.26176 5.37689 0.277712
2 3.68885 4.32245 -0.881303
7 3.84741 3.26833 -0.653748
2 2.54765 4.43729 -1.9608
1 1.715 5.09309 -1.70642
1 2.97307 4.56288 -2.95647
1 2.07401 3.46004 -2.0544
3 5.05779 4.95443 -1.28721
4 5.25282 5.82621 -2.12682
5 6.03831 4.60959 -0.488325
6 5.93055 4.12864 0.393247
2 7.49445 4.87018 -0.776216
7 8.2004 4.47926 -0.0434748
7 7.76646 4.50995 -1.76836
7 7.75457 5.9286 -0.789538
22
 Atoms. Timestep: 110000
1 1.24312 3.73303 -2.52718
2 2.032 3.16429 -2.03496
1 2.52102 2.52863 -2.77314
1 1.71708 2.45022 -1.27403
3 3.13901 4.01352 -1.50528
4 4.01854 4.42973 -2.25608
5 3.17223 4.2964 -0.210066
6 2.47903 3.89028 0.402012
2 3.81875 5.42098 0.432178
7 3.9384 6.19883 -0.321957
2 2.97301 6.01128 1.56838
1 2.54032 5.3036 2.27554
1 3.6476 6.73586 2.02443
1 2.18136 6.6273 1.1419
3 5.31489 5.05364 0.908212
4 5.3727 4.44342 1.96924
5 6.28169 5.45541 0.10484
6 6.01066 5.90043 -0.760348
2 7.69652 5.12485 0.150631
7 8.3384 5.97938 -0.0635137
7 7.83818 4.76613 1.17011
7 7.91105 4.30443 -0.534193
22
 Atoms. Timestep: 120000
1 3.24143 7.8413 2.16007
2 3.79242 7.65614 1.238
1 4.72303 8.22122 1.29032
1 3.31231 7.95842 0.307285
3 4.2937 6.19508 1.11907
4 5.49294 5.98725 1.2857
5 3.31025 5.37664 0.665867
6 2.35408 5.64378 0.480189
2 3.56808 3.99616 0.345455
7 4.25422 3.62876 1.10857
2 2.32836 3.06837 0.396394
1 1.78683 3.13106 -0.547491
1 2.57803 2.01009 0.472593
1 1.74911 3.4458 1.23908
3 4.48167 3.74444 -0.955847
4 3.95439 3.30267 -1.98503
5 5.85911 4.04205 -0.886801
6 6.20903 4.3907 -0.00583895
2 6.72893 3.98083 -1.99281
7 7.51792 3.23229 -1.92019
7 6.13533 3.69496 -2.86115
7 6.96051 4.99201 -2.32746
22
 Atoms. Timestep: 130000
1 4.88702 6.98657 2.77356
2 5.19309 7.50957 1.86753
1 6.26022 7.72764 1.82546
1 4.52374 8.35291 1.69767
3 4.77417 6.58057 0.736579
4 4.00953 6.90219 -0.13031
5 5.40768 5.35655 0.548135
6 5.96051 5.03268 1.3289
2 5.2348 4.54979 -0.647623
7 5.03202 5.21435 -1.48747
2 6.56369 3.87913 -1.10827
1 6.50076 3.86687 -2.19638
1 7.3411 4.59642 -0.845134
1 6.80997 2.92075 -0.651153
3 4.07515 3.45098 -0.626121
4 4.33371 2.34047 -0.287613
5 2.82594 3.838 -0.845381
6 2.67221 4.78462 -1.16221
2 1.63721 3.024 -0.430195
7 1.79119 2.82666 0.630678
7 0.671837 3.46193 -0.683913
7 1.67755 2.07813 -0.970389
22
 Atoms. Timestep: 140000
1 6.14237 5.50591 2.83418
2 6.22918 6.31531 2.10931
1 7.22811 6.73572 1.9931
1 5.55188 7.07996 2.48966
3 5.71529 5.9681 0.718104
4 5.39538 6.82722 -0.0623411
5 5.53841 4.69292 0.424776
6 5.88996 3.98883 1.05783
2 4.90656 4.24129 -0.860494
7 5.04078 5.03999 -1.58999
2 5.73722 3.07722 -1.24973
1 5.2803 2.7009 -2.165
1 6.701 3.40744 -1.63727
1 5.85121 2.22958 -0.574007
3 3.47121 3.84684 -0.726557
4 3.11025 2.6272 -0.715392
5 2.69085 4.85624 -0.467826
6 3.18354 5.73622 -0.413248
2 1.25035 4.90941 -0.158511
7 0.919655 5.94434 -0.0708975
7 0.632376 4.28832 -0.80693
7 1.19521 4.4786 0.841219
22
 Atoms. Timestep: 150000
1 5.29356 2.73815 -2.87605
2 5.14326 3.74032 -3.27751
1 4.52141 3.68457 -4.17098
1 5.92789 4.45911 -3.51372
3 4.1704 4.15263 -2.29701
4 2.96799 4.32533 -2.63157
5 4.72864 4.44711 -1.09006
6 5.72461 4.53686 -0.948312
2 3.91509 4.56015 0.082738
7 3.0019 5.12381 -0.108203
2 3.59963 3.05303 0.467459
1 3.07406 2.87363 1.40538
1 2.83586 2.71846 -0.234546
1 4.41705 2.40759 0.146012
3 4.72256 5.31143 1.17851
4 5.9417 5.41131 1.08873
5 4.04947 5.89752 2.18078
6 3.04953 5.78309 2.09632
2 4.70558 6.46432 3.31703
7 3.97143 6.27659 4.10052
7 5.76846 6.28139 3.47492
7 4.53829 7.54053 3.27384
22
 Atoms. Timestep: 160000
1 5.40417 6.16933 -2.7151
2 6.29237 6.2838 -2.09374
1 6.39103 7.31368 -1.75064
1 7.14555 5.777 -2.54471
3 5.90693 5.54981 -0.878304
4 6.36887 4.44917 -0.583551
5 4.87945 6.02047 -0.197608
6 4.57931 6.96893 -0.372081
2 4.25421 5.31452 0.960414
7 5.06616 4.81316 1.48718
2 3.52924 6.32957 1.91248
1 3.11151 5.75873 2.74179
1 4.30432 6.92909 2.38991
1 2.77092 6.80268 1.28861
3 3.36207 4.12895 0.504818
4 2.62014 3.60674 1.34388
5 3.5497 3.60921 -0.726599
6 4.1184 4.08694 -1.41105
2 3.21352 2.24696 -1.04062
7 2.7356 2.38411 -2.01062
7 4.05001 1.60765 -1.32287
7 2.44214 1.78631 -0.423456
22
 Atoms. Timestep: 170000
1 7.04278 6.60508 -1.81302
2 6.1249 6.8142 -2.36243
1 6.04745 6.57769 -3.42364
1 6.19093 7.88759 -2.18475
3 5.02575 6.19979 -1.67177
4 3.83746 6.67684 -1.78066
5 5.40527 5.14471 -0.898516
6 6.35689 5.18333 -0.562314
2 4.39023 4.19076 -0.46318
7 3.43384 4.60302 -0.784853
2 4.58517 2.82144 -1.04708
1 3.68953 2.25589 -0.789997
1 4.76618 2.79804 -2.12169
1 5.56232 2.54643 -0.650049
3 4.26193 4.05999 1.09988
4 5.18678 4.2555 1.88749
5 2.96906 3.71827 1.47264
6 2.44455 3.50836 0.635428
2 2.22148 3.5058 2.7535
7 2.81809 2.80283 3.33488
7 2.13914 4.47317 3.24899
7 1.22107 3.10137 2.59951
22
 Atoms. Timestep: 180000
1 4.32743 1.50147 -2.27292
2 3.57763 2.04404 -1.69714
1 3.43255 1.36589 -0.856184
1 2.66408 2.05259 -2.29168
3 4.14871 3.33297 -1.36305
4 5.15762 3.71028 -1.93046
5 3.39521 4.04639 -0.507309
6 2.53122 3.65377 -0.161662
2 3.65239 5.48519 -0.306126
7 4.22807 5.8559 -1.15423
2 2.2419 6.12813 -0.159239
1 2.26283 7.14419 0.234831
1 1.8163 6.14539 -1.16258
1 1.62326 5.55194 0.528796
3 4.58495 5.6599 0.880276
4 4.17071 5.69637 2.04999
5 5.87301 5.61033 0.581502
6 6.09883 5.29754 -0.351918
2 7.02736 5.74874 1.4961
7 6.5857 6.13258 2.41572
7 7.4741 4.76267 1.62336
7 7.81813 6.44916 1.22738
22
 Atoms. Timestep: 190000
1 6.78486 7.85714 -1.44313
2 6.79954 6.86764 -0.986162
1 7.21273 6.97803 0.0164331
1 7.57544 6.32442 -1.5256
3 5.43944 6.16707 -0.88133
4 4.35153 6.82842 -0.800658
5 5.40302 4.87204 -0.917783
6 6.25835 4.36025 -0.754745
2 4.22241 4.02085 -0.909887
7 3.33661 4.45052 -1.37769
2 4.41665 2.76609 -1.85571
1 5.30568 2.26568 -1.47186
1 3.54915 2.11081 -1.77722
1 4.53977 3.10205 -2.88531
3 3.75051 3.79682 0.578048
4 4.05948 2.71852 1.11312
5 3.10051 4.80304 1.19192
6 3.05438 5.76495 0.887447
2 2.42589 4.50564 2.39441
7 2.61398 5.30818 3.10761
7 1.34102 4.54125 2.29488
7 2.77698 3.64268 2.96022
22
 Atoms. Timestep: 200000
1 3.52737 6.4293 2.69779
2 4.61667 6.41025 2.7313
1 4.83019 5.58762 3.41377
1 4.84713 7.39466 3.13861
3 5.12552 6.15674 1.34112
4 5.35864 7.06612 0.594729
5 5.22322 4.85965 1.01761
6 4.86246 4.20352 1.69542
2 5.22978 4.43769 -0.414756
7 5.41709 5.28899 -1.06919
2 6.08837 3.17293 -0.558646
1 6.25464 2.6455 0.380642
1 5.72496 2.50031 -1.33555
1 7.11663 3.28273 -0.903202
3 3.86518 3.99234 -0.825588
4 3.02648 3.6087 0.0311721
5 3.49174 4.10072 -2.13943
6 3.99272 4.60321 -2.85818
2 2.12417 3.63291 -2.63554
7 1.43688 4.47376 -2.5423
7 2.03487 3.32186 -3.67639
7 1.83266 2.833 -1.9549
22
 Atoms. Timestep: 210000
1 2.80148 1.46804 1.80007
2 3.64533 2.13044 1.993
1 4.54336 1.61248 1.65631
1 3.58817 2.42716 3.04028
3 3.43415 3.40287 1.25374
4 2.2883 3.69723 0.945191
5 4.56961 4.11873 0.993179
6 5.44817 3.71281 1.28209
2 4.60231 5.44137 0.405685
7 3.56936 5.78066 0.483152
2 5.41128 6.30989 1.29203
1 5.46153 5.9642 2.32455
1 6.46992 6.14924 1.08814
1 5.1652 7.36993 1.22998
3 5.06554 5.25323 -1.05342
4 6.07004 4.72576 -1.3332
5 4.29652 5.98189 -1.93386
6 3.4632 6.38804 -1.53295
2 4.53664 6.28581 -3.37795
7 3.88936 7.069 -3.7726
7 5.41478 6.93017 -3.42002
7 4.61041 5.42615 -4.04403
22
 Atoms. Timestep: 220000
1 4.55947 8.18785 -2.13267
2 5.23126 7.33946 -2.0022
1 5.92424 7.59999 -1.20219
1 5.73937 7.07519 -2.9296
3 4.18899 6.28232 -1.58031
4 3.03663 6.37261 -1.84838
5 4.68955 5.27579 -0.897608
6 5.68728 5.3061 -1.05157
2 3.93754 4.09138 -0.465965
7 2.8737 4.32852 -0.456092
2 4.21868 2.99391 -1.491
1 3.86561 3.35831 -2.4557
1 5.17997 2.48807 -1.40076
1 3.46862 2.23797 -1.2585
3 4.32428 3.6384 0.998161
4 4.38198 2.44748 1.24671
5 4.71735 4.5639 1.82947
6 4.70001 5.51102 1.47908
2 5.12883 4.35833 3.23649
7 6.21333 4.25291 3.2076
7 4.98375 5.27135 3.8139
7 4.64643 3.43141 3.54668
22
 Atoms. Timestep: 230000
1 3.7052 7.14976 -2.81635
2 4.02528 6.13707 -3.06151
1 5.07204 6.30038 -3.31791
1 3.41955 5.75166 -3.88166
3 3.93188 5.11597 -1.94323
4 2.95617 4.41704 -1.85865
5 4.99199 4.95222 -1.14843
6 5.90033 5.25818 -1.46689
2 5.08126 3.85858 -0.0909249
7 4.30349 3.16342 -0.407028
2 6.54223 3.33961 -0.129983
1 6.87381 2.74534 -0.981449
1 7.14983 4.23654 -0.00978141
1 6.6509 2.75925 0.786245
3 4.5233 4.27504 1.30067
4 4.95278 3.75064 2.34655
5 3.58603 5.24677 1.29903
6 3.2887 5.55157 0.383176
2 3.36962 6.15972 2.33194
7 3.90263 7.10603 2.23976
7 2.34389 6.52703 2.3641
7 3.67853 5.69049 3.26601
22
 Atoms. Timestep: 240000
1 1.32646 2.32469 -0.142772
2 1.65371 3.00102 -0.932445
1 0.83425 3.49951 -1.45022
1 2.2031 2.34068 -1.60343
3 2.65133 4.03848 -0.447815
4 2.72499 5.10162 -1.06372
5 3.49499 3.72808 0.51653
6 3.34957 2.84091 0.976846
2 4.55749 4.61418 1.06018
7 4.01193 5.48232 1.43004
2 5.32397 3.87269 2.17198
1 5.85107 2.94518 1.94839
1 5.97685 4.51648 2.76136
1 4.47214 3.57371 2.78279
3 5.48145 5.11865 -0.0522554
4 5.95278 4.32894 -0.91227
5 5.80668 6.39738 0.0106173
6 5.41234 6.92993 0.772835
2 6.25783 7.13372 -1.12638
7 5.76604 6.65232 -1.97166
7 5.93217 8.17318 -1.16577
7 7.3328 7.12971 -1.30675
22
 Atoms. Timestep: 250000
1 5.06079 8.30116 1.47763
2 4.57083 7.95714 0.566759
1 5.33483 7.93364 -0.21032
1 3.84492 8.67499 0.184846
3 4.05548 6.51053 0.612886
4 4.02745 5.84477 1.67756
5 3.85187 5.8652 -0.563412
6 4.08713 6.32865 -1.42942
2 3.35074 4.47835 -0.577722
7 2.63007 4.27653 0.214739
2 2.63106 4.29916 -1.93523
1 3.28127 4.21041 -2.80555
1 1.92679 3.46728 -1.92647
1 2.02184 5.13112 -2.28851
3 4.49785 3.4281 -0.32947
4 4.19972 2.20686 -0.248371
5 5.7515 3.81546 -0.315561
6 5.80577 4.81094 -0.153783
2 6.82053 3.02114 0.181797
7 7.74102 3.24259 -0.358355
7 7.15234 3.29945 1.18207
7 6.53292 1.97699 0.304857
22
 Atoms. Timestep: 260000
1 1.20555 6.03742 1.73606
2 2.0091 5.35858 2.02169
1 1.53477 4.5192 2.53017
1 2.7952 5.86678 2.58014
3 2.65901 4.7819 0.783254
4 2.59497 3.61029 0.576338
5 3.33676 5.55832 -0.0588924
6 3.64561 6.42576 0.356141
2 4.19864 5.16125 -1.17872
7 3.79672 4.2965 -1.7067
2 4.303 6.38471 -2.10119
1 5.20716 6.93817 -1.84767
1 4.33987 6.14138 -3.16304
1 3.43839 7.01286 -1.88673
3 5.58869 4.72931 -0.650106
4 6.4204 5.57484 -0.348455
5 5.76251 3.44226 -0.378954
6 5.0146 2.79142 -0.571665
2 6.93338 2.85084 0.287609
7 7.66111 2.50146 -0.444819
7 7.4493 3.60077 0.887226
7 6.62268 2.07971 0.992539
22
 Atoms. Timestep: 270000
1 0.679714 5.13829 -2.01868
2 1.44518 4.36335 -2.05905
1 1.48141 3.9958 -3.08457
1 1.06921 3.56438 -1.41998
3 2.85161 4.91774 -1.5851
4 3.71554 5.0709 -2.44117
5 3.13209 5.14907 -0.229359
6 2.59925 4.72485 0.516442
2 4.45723 5.66382 0.218542
7 5.03108 6.06437 -0.617138
2 4.34116 6.77461 1.24293
1 3.87321 6.44975 2.17222
1 5.3355 6.99268 1.63258
1 3.87552 7.70276 0.911534
3 5.28015 4.42895 0.867717
4 4.81653 3.79701 1.8395
5 6.44247 4.20175 0.330344
6 6.74631 4.76308 -0.452401
2 7.34717 3.12566 0.861197
7 7.64558 3.56542 1.81285
7 6.87961 2.14398 0.937268
7 8.19459 3.18355 0.178105
22
 Atoms. Timestep: 280000
1 0.728244 5.87878 -0.351027
2 1.24145 5.33541 0.442361
1 0.912004 4.3018 0.336402
1 1.0036 5.80784 1.39543
3 2.74059 5.56024 0.203729
4 3.09674 6.47852 -0.473397
5 3.56982 4.90147 0.931644
6 3.26989 4.11816 1.49429
2 5.03766 4.97064 0.804263
7 5.2594 6.01921 0.60571
2 5.63809 4.52732 2.17955
1 5.09044 3.66432 2.55822
1 6.72274 4.42029 2.19242
1 5.39456 5.20497 2.99783
3 5.56579 4.10219 -0.379781
4 6.34629 3.21641 -0.136014
5 5.16268 4.47964 -1.56117
6 4.457 5.19745 -1.64402
2 5.57075 3.85584 -2.80952
7 5.49986 4.6028 -3.60017
7 6.57843 3.45532 -2.69876
7 4.88297 3.06092 -3.09792
22
 Atoms. Timestep: 290000
1 1.19827 6.67944 -1.18932
2 1.70085 5.77054 -1.52011
1 1.81205 5.93231 -2.59231
1 1.30593 4.78884 -1.2585
3 3.09093 5.84146 -0.905736
4 4.02438 6.51281 -1.36389
5 3.24938 5.22561 0.272204
6 2.50925 4.58093 0.510347
2 4.51023 5.06791 1.03582
7 4.98054 6.0496 0.97934
2 4.0601 4.85402 2.48424
1 3.41324 4.0131 2.73436
1 4.91912 4.60396 3.10686
1 3.59984 5.78076 2.82691
3 5.53051 4.0557 0.485293
4 6.08825 3.24172 1.18595
5 5.60417 4.0381 -0.84513
6 5.29914 4.86566 -1.33728
2 6.03811 2.87725 -1.61169
7 6.96444 3.11017 -2.13682
7 6.41821 2.03191 -1.03807
7 5.35753 2.60798 -2.41942
22
 Atoms. Timestep: 300000
1 1.80854 7.73999 0.784684
2 1.72582 6.83487 0.183024
1 1.68463 7.1766 -0.851201
1 0.934681 6.14368 0.473661
3 3.0237 6.09426 0.510648
4 4.03124 6.6606 1.02151
5 3.07418 4.80154 0.136781
6 2.18382 4.47665 -0.212219
2 4.09851 3.76884 0.428965
7 4.47372 4.06746 1.40781
2 3.58919 2.30597 0.613188
1 3.50073 1.76157 -0.326969
1 4.28059 1.7269 1.22535
1 2.68371 2.30365 1.21998
3 5.36612 3.78217 -0.514729
4 5.67243 2.92247 -1.28605
5 6.09204 4.92796 -0.497665
6 5.76839 5.69323 0.0765405
2 7.15849 5.20011 -1.42696
7 8.13992 4.98976 -1.00195
7 6.97798 4.69529 -2.376
7 7.11605 6.24429 -1.73676
22
 Atoms. Timestep: 310000
1 0.482322 4.00098 -0.797697
2 1.33887 3.47099 -0.38111
1 1.76408 2.71921 -1.04606
1 1.13238 2.93351 0.544406
3 2.39408 4.45253 -0.0831212
4 2.32622 5.62255 -0.588345
5 3.46952 4.10287 0.609327
6 3.56425 3.14742 0.9228
2 4.70461 4.95457 0.95196
7 4.34703 5.97171 1.11245
2 5.15506 4.5257 2.40587
1 5.66027 3.55993 2.39403
1 5.83999 5.28004 2.79311
1 4.27431 4.40492 3.03658
3 5.77743 5.0508 -0.0699873
4 6.97427 5.14778 0.20489
5 5.38385 5.11351 -1.34812
6 4.41882 5.23343 -1.62093
2 6.35206 4.9518 -2.47032
7 5.88567 5.26271 -3.40517
7 7.0778 5.7439 -2.28599
7 6.79511 3.95604 -2.48676
22
 Atoms. Timestep: 320000
1 3.94345 7.84521 -0.023214
2 3.48367 7.47007 0.891104
1 2.43962 7.40977 0.58384
1 3.65755 8.10327 1.76111
3 4.00647 6.11117 1.20604
4 5.18632 5.9871 1.63272
5 3.34594 5.04503 0.729261
6 2.39662 5.2035 0.423008
2 3.7714 3.65769 0.364786
7 4.42516 3.27221 1.14716
2 2.51846 2.81078 0.320809
1 1.83663 3.09972 -0.479018
1 2.70491 1.74143 0.221643
1 1.94493 3.05109 1.21603
3 4.73516 3.6805 -0.921973
4 4.62344 2.87354 -1.86
5 5.71603 4.60765 -0.951752
6 5.85085 5.08516 -0.0720363
2 6.46091 5.02974 -2.16144
7 7.14034 5.8334 -1.87751
7 7.01756 4.25274 -2.68538
7 5.79067 5.43759 -2.91811
22
 Atoms. Timestep: 330000
1 6.3767 2.87631 2.16858
2 5.55968 3.21159 2.80745
1 5.92495 3.80737 3.64394
1 5.08917 2.30725 3.1933
3 4.52863 3.79948 1.96287
4 3.35688 3.78284 2.33847
5 4.88551 4.48554 0.859518
6 5.83105 4.44252 0.507109
2 3.90006 5.1588 -0.00166518
7 2.96307 4.60269 0.028109
2 3.63088 6.64271 0.387816
1 4.46772 7.25601 0.0536641
1 2.86521 7.10013 -0.238769
1 3.35734 6.86253 1.41978
3 4.60765 5.0819 -1.39719
4 5.65316 5.67752 -1.58958
5 3.69541 4.74768 -2.36848
6 2.74227 4.56965 -2.08575
2 4.12475 4.74964 -3.78197
7 4.64801 3.80421 -3.92502
7 3.2 4.74007 -4.3589
7 4.67293 5.65718 -4.03487
22
 Atoms. Timestep: 340000
1 4.19401 2.21743 -2.97392
2 5.02274 2.29906 -2.27061
1 5.90354 2.1009 -2.88137
1 4.93362 1.50623 -1.52791
3 5.14179 3.59871 -1.48943
4 6.1903 4.0932 -1.17282
5 3.98965 4.14796 -1.10312
6 3.14246 3.73356 -1.46459
2 3.78674 5.51327 -0.59468
7 4.53778 6.17342 -1.02855
2 2.39372 6.08053 -1.1148
1 2.10097 6.96957 -0.556217
1 2.52677 6.46109 -2.12752
1 1.71712 5.2299 -1.03274
3 3.91815 5.56411 0.909021
4 3.05426 6.07461 1.56867
5 5.00126 4.99473 1.44073
6 5.63256 4.64486 0.734207
2 5.38992 5.07799 2.83608
7 4.4931 5.09123 3.45547
7 5.83906 4.08555 2.87412
7 6.02004 5.92275 3.11437
22
 Atoms. Timestep: 350000
1 6.15041 3.59543 -3.13623
2 6.5994 3.22545 -2.21447
1 7.67921 3.24714 -2.36161
1 6.18599 2.2219 -2.11404
3 6.23345 4.16713 -1.05785
4 7.01081 4.13442 -0.104297
5 5.12573 4.87644 -1.17777
6 4.52575 4.57904 -1.93387
2 4.4635 5.54935 -0.0509335
7 5.20103 5.3574 0.728384
2 4.22836 7.06967 -0.243885
1 5.14403 7.52992 -0.615153
1 3.49921 7.20041 -1.04349
1 3.98376 7.54556 0.705747
3 3.22569 4.82721 0.32276
4 2.48124 4.23014 -0.449294
5 2.87785 5.02249 1.62803
6 3.52512 5.59523 2.15064
2 1.77693 4.35797 2.3681
7 1.82463 4.73175 3.39091
7 0.828127 4.70048 1.95509
7 1.87144 3.27764 2.25833
22
 Atoms. Timestep: 360000
1 6.61784 7.82987 1.05907
2 6.9123 6.86495 0.646389
1 7.76019 6.46083 1.19945
1 7.08892 7.00094 -0.420577
3 5.70217 5.97792 0.768914
4 5.58272 5.18294 1.67329
5 4.8138 5.91672 -0.245126
6 4.9989 6.49118 -1.05496
2 3.4165 5.28677 -0.153716
7 3.12194 5.19159 0.891403
2 2.48925 6.26453 -0.918438
1 1.58223 5.78003 -1.27994
1 2.06452 6.98582 -0.220261
1 3.01606 6.62366 -1.80252
3 3.41047 3.80481 -0.726229
4 2.59513 3.4257 -1.55806
5 4.41226 3.10172 -0.218864
6 5.03729 3.6868 0.316972
2 4.53895 1.67031 -0.170524
7 5.52852 1.26567 -0.382945
7 4.33787 1.30119 0.835165
7 3.82102 1.31535 -0.909897
22
 Atoms. Timestep: 370000
1 7.591 4.26384 2.10138
2 6.99413 5.13283 1.82441
1 7.30255 5.54631 0.864185
1 7.07098 5.84104 2.64941
3 5.65077 4.59949 1.63482
4 5.5211 3.46887 2.09817
5 4.82214 5.42957 0.971876
6 5.3334 6.20216 0.56954
2 3.62927 4.96008 0.314029
7 3.49555 3.94725 0.694026
2 2.41011 5.76789 0.725381
1 2.41769 6.77541 0.309516
1 1.48892 5.31511 0.358619
1 2.41625 5.84275 1.81279
3 3.89992 4.92523 -1.25237
4 4.64375 5.73796 -1.78337
5 3.12961 3.92156 -1.91734
6 2.61037 3.27047 -1.34588
2 3.20166 3.53712 -3.38616
7 4.12427 2.98551 -3.56678
7 2.42258 2.78308 -3.49816
7 3.02047 4.31986 -4.12277
22
 Atoms. Timestep: 380000
1 6.63893 2.99521 2.92879
2 6.16036 3.96245 2.77542
1 6.90167 4.70289 3.07593
1 5.35264 4.03394 3.50383
3 5.63247 4.52025 1.41951
4 5.95882 5.63247 0.933494
5 4.74381 3.78566 0.774633
6 4.46318 2.98495 1.32255
2 4.25312 3.70251 -0.588768
7 5.1683 3.63362 -1.17682
2 3.52803 2.39199 -0.570733
1 2.62175 2.44025 0.0329488
1 3.22578 2.02715 -1.55239
1 4.22721 1.61178 -0.269826
3 3.54745 4.92127 -1.2208
4 2.71635 4.80681 -2.09308
5 3.82734 6.16702 -0.772851
6 4.4477 6.23055 0.0216409
2 3.5629 7.37138 -1.57448
7 2.49374 7.57484 -1.63454
7 4.10837 8.21568 -1.15292
7 3.97653 7.17673 -2.56399
22
 Atoms. Timestep: 390000
1 3.0858 6.47649 3.16929
2 4.059 5.98581 3.1835
1 4.03783 4.94042 3.49142
1 4.67272 6.67613 3.76222
3 4.58883 5.85128 1.78357
4 4.86893 6.88883 1.25871
5 4.51887 4.68953 1.17515
6 4.02162 3.92239 1.6045
2 5.12901 4.43346 -0.156828
7 5.44902 5.41776 -0.49863
2 6.36211 3.54145 0.057929
1 5.87025 2.62595 0.386593
1 7.02806 3.43439 -0.798299
1 7.06618 3.90649 0.805679
3 4.01441 3.96362 -1.23181
4 3.00085 3.34834 -0.876233
5 4.19836 4.41542 -2.46097
6 4.99773 4.98709 -2.69396
2 3.28087 4.2427 -3.54234
7 3.76696 3.66926 -4.33163
7 2.41403 3.68185 -3.19289
7 3.03446 5.19636 -4.00912
22
 Atoms. Timestep: 400000
1 3.33081 1.48847 0.576407
2 4.06132 1.66781 -0.212442
1 3.69849 1.68369 -1.24016
1 4.80035 0.868266 -0.160715
3 4.78147 2.93132 0.150842
4 5.14724 3.13598 1.30762
5 4.8765 3.76183 -0.868933
6 4.91512 3.32434 -1.77845
2 5.25404 5.17728 -0.785619
7 6.07904 5.26735 -0.0789536
2 5.76295 5.65966 -2.20074
1 6.59246 5.01309 -2.48704
1 5.04121 5.52609 -3.00657
1 6.17433 6.66905 -2.20486
3 4.19027 6.03212 -0.221339
4 3.66898 6.89017 -0.895082
5 3.69989 5.71583 1.00174
6 4.26259 4.99606 1.43234
2 2.57803 6.40567 1.73596
7 2.08443 7.1764 1.14398
7 1.94423 5.70444 2.2788
7 3.06119 7.10786 2.41537
22
 Atoms. Timestep: 410000
1 2.00935 2.01741 1.94529
2 2.15365 2.50154 0.97942
1 1.30085 3.13094 0.725085
1 2.08599 1.82389 0.128354
3 3.44018 3.27251 0.832765
4 4.21501 3.29384 1.80593
5 3.6927 3.96439 -0.296547
6 3.03947 4.30832 -0.985828
2 5.0701 4.28458 -0.690796
7 5.84609 3.93323 -0.0107257
2 5.30851 3.61595 -2.07392
1 4.40056 3.43523 -2.6493
1 6.12972 4.01872 -2.6668
1 5.59919 2.57193 -1.95722
3 5.02301 5.80957 -0.763553
4 4.44992 6.32675 -1.71519
5 5.42697 6.39332 0.359495
6 5.75772 5.77403 1.08558
2 5.21761 7.8309 0.608559
7 4.60723 7.93235 1.50591
7 6.12283 8.29509 0.999982
7 4.88068 8.44775 -0.224559
22
 Atoms. Timestep: 420000
1 4.4376 6.95516 3.36477
2 5.16109 6.24192 2.96987
1 5.57746 5.76231 3.8557
1 5.8102 6.69352 2.21966
3 4.51277 5.16209 2.07261
4 4.66088 3.99231 2.27484
5 3.93781 5.51488 0.924538
6 3.96222 6.50092 0.707242
2 3.51213 4.58888 -0.186847
7 3.48998 3.57075 0.201763
2 2.0906 4.92061 -0.5691
1 1.71867 4.35063 -1.4205
1 1.39221 4.94398 0.26744
1 2.08578 5.89729 -1.05301
3 4.54158 4.54275 -1.31281
4 5.29452 5.50178 -1.5262
5 4.61858 3.48187 -2.08729
6 3.88036 2.80736 -1.94528
2 5.51561 3.42667 -3.3079
7 4.90402 3.38508 -4.20919
7 6.02442 4.36571 -3.52566
7 6.31833 2.699 -3.18865
22
 Atoms. Timestep: 430000
1 5.5739 6.64633 3.16362
2 5.03106 6.92702 2.26104
1 5.7292 7.40566 1.57431
1 4.18206 7.53949 2.56466
3 4.6047 5.66411 1.63661
4 4.86694 4.6321 2.14584
5 3.86056 5.71027 0.510794
6 3.6412 6.67702 0.317474
2 3.24964 4.57474 -0.228212
7 2.96472 3.80942 0.493737
2 2.0419 5.18501 -0.973903
1 1.58537 4.33992 -1.48918
1 1.34036 5.6227 -0.263707
1 2.50293 5.94426 -1.60564
3 4.2021 3.83891 -1.22846
4 3.80464 3.54555 -2.3276
5 5.50175 3.79734 -0.865083
6 5.58323 3.95372 0.129405
2 6.61807 3.51017 -1.7882
7 6.53725 4.12943 -2.68155
7 7.63605 3.44233 -1.4045
7 6.5726 2.48234 -2.14819
22
 Atoms. Timestep: 440000
1 5.60524 2.22596 -2.70942
2 5.02184 3.10629 -2.97918
1 4.35096 2.89095 -3.81083
1 5.6699 3.91036 -3.32789
3 4.28323 3.55906 -1.67924
4 3.07201 3.52409 -1.50007
5 5.09413 3.79301 -0.650878
6 6.0821 3.74469 -0.855046
2 4.61418 4.07568 0.703341
7 3.65785 3.57096 0.840463
2 5.55164 3.35148 1.6892
1 5.04779 3.26616 2.65199
1 5.68469 2.29074 1.47647
1 6.44598 3.96231 1.81224
3 4.41581 5.62791 1.05408
4 4.85019 6.13165 2.08195
5 3.73557 6.37128 0.122717
6 3.42269 5.84879 -0.683025
2 3.32035 7.74587 0.276524
7 2.41587 7.99068 -0.280341
7 3.25763 7.98741 1.33757
7 4.11529 8.32861 -0.188876
22
 Atoms. Timestep: 450000
1 6.3606 5.83786 2.82356
2 5.32152 5.78951 3.14926
1 4.73312 6.70636 3.11341
1 5.16121 5.2264 4.06867
3 4.6036 4.93774 2.14319
4 4.33923 3.74254 2.44021
5 4.48226 5.50294 0.916558
6 4.79487 6.45956 0.831267
2 3.70258 4.89614 -0.19378
7 3.19102 4.01931 0.203168
2 2.57024 5.87661 -0.454653
1 2.36211 6.429 0.461681
1 2.78206 6.51887 -1.30949
1 1.68607 5.27878 -0.6759
3 4.56408 4.62115 -1.40396
4 5.51039 5.24101 -1.80113
5 4.18182 3.58923 -2.15978
6 3.3621 3.14863 -1.7673
2 4.65425 3.24684 -3.43659
7 5.69453 2.95966 -3.28334
7 4.08488 2.36592 -3.73308
7 4.58805 3.97964 -4.24078
22
 Atoms. Timestep: 460000
1 5.85813 7.63275 -2.6595
2 5.04083 6.91252 -2.62215
1 4.87319 6.57624 -3.64534
1 4.16404 7.40812 -2.20535
3 5.38596 5.68296 -1.74811
4 5.77313 4.65726 -2.22817
5 5.27942 5.84104 -0.449884
6 5.03425 6.77422 -0.151296
2 5.04752 4.69193 0.492242
7 5.70552 3.96235 0.0201315
2 5.64976 5.09478 1.87679
1 5.07763 5.87772 2.37457
1 5.65655 4.2227 2.53065
1 6.6771 5.36905 1.63706
3 3.60528 4.19472 0.680791
4 2.65059 4.8795 0.36732
5 3.44153 2.98888 1.12179
6 4.30901 2.5196 1.33938
2 2.16717 2.48363 1.55808
7 2.19662 2.23725 2.61946
7 1.44129 3.29678 1.5549
7 2.01372 1.58034 0.967631
22
 Atoms. Timestep: 470000
1 3.0211 3.87586 -3.78332
2 3.85946 4.21215 -3.17327
1 4.09555 5.22847 -3.48863
1 4.66613 3.53658 -3.45784
3 3.59255 4.27604 -1.68703
4 2.60942 4.75087 -1.20554
5 4.60391 3.85001 -0.947879
6 5.47615 3.54031 -1.35208
2 4.5059 3.69687 0.504583
7 3.45933 3.46145 0.69787
2 5.51327 2.55718 0.912055
1 5.12029 1.64912 0.454782
1 6.47392 2.9936 0.63859
1 5.53794 2.26945 1.96311
3 4.89768 5.04339 1.15411
4 6.02084 5.23626 1.58783
5 3.99701 6.08451 1.06063
6 3.03689 5.85531 0.846777
2 4.31006 7.51839 0.951154
7 3.48574 8.01444 1.46352
7 5.24972 7.73126 1.4609
7 4.36656 7.72808 -0.116995
22
 Atoms. Timestep: 480000
1 5.68997 1.85218 -0.806061
2 4.72499 1.66904 -0.333435
1 4.8742 1.06414 0.560952
1 4.00647 1.28389 -1.05695
3 4.04261 2.95281 0.309493
4 2.88897 3.15778 0.0265403
5 4.88883 3.86639 0.794782
6 5.85424 3.6104 0.644656
2 4.58983 5.26865 1.08199
7 3.58935 5.35535 1.50583
2 5.62811 5.81932 2.0836
1 5.47898 5.21114 2.97577
1 6.49429 5.68646 1.4354
1 5.45282 6.87891 2.26973
3 4.48953 6.05656 -0.260565
4 4.89794 7.26859 -0.346118