# Model system


units	real
atom_style atomic
newton on ## off for nequip

read_data ADP.lmp
Reading data file ...
  orthogonal box = (-50.000000 -50.000000 -50.000000) to (50.000000 50.000000 50.000000)
  1 by 1 by 1 MPI processor grid
  reading atoms ...
  22 atoms
  read_data CPU = 0.002 seconds

pair_style	allegro ##nequip
pair_coeff	* * ADP_Univ2D_SPC_2500_Frames.pth H C N O
mass            1 1.00794 # H
mass            2 12.011  # C
mass            3 14.0067 # N
mass            4 15.9994 # O


neighbor 1.0 bin
neigh_modify delay 5 every 1

timestep        1
thermo 500

thermo_style    custom step time temp pe ke etotal press density #lx ly lz vol density

velocity all create 600 54323
fix 1 all nvt/gpu temp 600 600 100

fix pl all plumed plumedfile plumed_MetaD.dat outfile plumed.log

#minimize 0.0 1.0e-8 10000 1000000
#write_dump all custom output.dump id type x y z fx fy fz
# Define Dumping
#dump 1 all xyz 1000 water255_minimized.xyz
#dump myDump2 all custom 500 forces.dump id type x y z fx fy fz
dump Dumpdcd all dcd 1000 ADP_Boltz_CtC.dcd
#dump mydumpxyz all xyz 5000 traj_nnip.xyz


restart 5000000 but_dpmd.restart


#run 1500
run 10000000

CITE-CITE-CITE-CITE-CITE-CITE-CITE-CITE-CITE-CITE-CITE-CITE-CITE

Your simulation uses code contributions which should be cited:

- GPU package (short-range, long-range and three-body potentials):

@Article{Brown11,
 author = {W. M. Brown, P. Wang, S. J. Plimpton, A. N. Tharrington},
 title = {Implementing Molecular Dynamics on Hybrid High Performance Computers - Short Range Forces},
 journal = {Comp.~Phys.~Comm.},
 year =    2011,
 volume =  182,
 pages =   {898--911}
}

@Article{Brown12,
 author = {W. M. Brown, A. Kohlmeyer, S. J. Plimpton, A. N. Tharrington},
 title = {Implementing Molecular Dynamics on Hybrid High Performance Computers - Particle-Particle Particle-Mesh},
 journal = {Comp.~Phys.~Comm.},
 year =    2012,
 volume =  183,
 pages =   {449--459}
}

@Article{Brown13,
 author = {W. M. Brown, Y. Masako},
 title = {Implementing Molecular Dynamics on Hybrid High Performance Computers – Three-Body Potentials},
 journal = {Comp.~Phys.~Comm.},
 year =    2013,
 volume =  184,
 pages =   {2785--2793}
}

@Article{Trung15,
 author = {T. D. Nguyen, S. J. Plimpton},
 title = {Accelerating dissipative particle dynamics simulations for soft matter systems},
 journal = {Comput.~Mater.~Sci.},
 year =    2015,
 volume =  100,
 pages =   {173--180}
}

@Article{Trung17,
 author = {T. D. Nguyen},
 title = {GPU-accelerated Tersoff potentials for massively parallel Molecular Dynamics simulations},
 journal = {Comp.~Phys.~Comm.},
 year =    2017,
 volume =  212,
 pages =   {113--122}
}

@Article{Nikolskiy19,
 author = {V. Nikolskiy, V. Stegailov},
 title = {GPU acceleration of four-site water models in LAMMPS},
 journal = {Proceeding of the International Conference on Parallel Computing (ParCo 2019), Prague, Czech Republic},
 year =    2019
}

CITE-CITE-CITE-CITE-CITE-CITE-CITE-CITE-CITE-CITE-CITE-CITE-CITE

Neighbor list info ...
  update every 1 steps, delay 5 steps, check yes
  max neighbors/atom: 2000, page size: 100000
  master list distance cutoff = 7
  ghost atom cutoff = 7
  binsize = 3.5, bins = 29 29 29
  1 neighbor lists, perpetual/occasional/extra = 1 0 0
  (1) pair allegro, perpetual
      attributes: full, newton on, ghost
      pair build: full/bin/ghost
      stencil: full/ghost/bin/3d
      bin: standard
Per MPI rank memory allocation (min/avg/max) = 3.209 | 3.209 | 3.209 Mbytes
Step Time Temp PotEng KinEng TotEng Press Density 
       0            0          600   -58471.626    37.558207   -58434.068    13.094426 0.00023940567 
     500          500    603.94767   -58464.178    37.805319   -58426.373   0.54813545 0.00023940567 
    1000         1000    757.60188   -58456.826    47.423613   -58409.402    5.0763197 0.00023940567 
    1500         1500    699.91308   -58447.507    43.812467   -58403.695   -6.2027781 0.00023940567 
    2000         2000    787.02009   -58445.277    49.265106   -58396.012   -4.1247437 0.00023940567 
    2500         2500    742.15243   -58449.338    46.456524   -58402.882   -5.6238007 0.00023940567 
    3000         3000    573.94536    -58451.09    35.927264   -58415.163    6.8118331 0.00023940567 
    3500         3500    592.85101   -58454.402    37.110701   -58417.291   -2.0357953 0.00023940567 
    4000         4000    545.31728   -58459.273    34.135232   -58425.137   -1.6775541 0.00023940567 
    4500         4500    651.70227   -58464.092    40.794614   -58423.297    5.8923382 0.00023940567 
    5000         5000    682.03713    -58450.66    42.693486   -58407.967    7.4722433 0.00023940567 
    5500         5500    595.40777   -58454.362    37.270747   -58417.091  -0.37478667 0.00023940567 
    6000         6000    522.57863   -58456.339     32.71186   -58423.627  -0.53480812 0.00023940567 
    6500         6500    404.65113   -58448.675    25.329951   -58423.345   -3.3538909 0.00023940567 
    7000         7000    433.94974    -58452.17    27.163957   -58425.006   -2.8726758 0.00023940567 
    7500         7500    613.26616   -58453.309    38.388629    -58414.92    2.7039898 0.00023940567 
    8000         8000    669.15492   -58449.499    41.887098   -58407.612   0.46125163 0.00023940567 
    8500         8500    538.97758   -58460.389    33.738386    -58426.65  -0.79102118 0.00023940567 
    9000         9000    607.71912   -58459.393      38.0414   -58421.351  -0.83308065 0.00023940567 
    9500         9500    742.91678   -58459.463     46.50437   -58412.959    2.2307903 0.00023940567 
   10000        10000    794.00565   -58453.017     49.70238   -58403.315    4.5562301 0.00023940567 
   10500        10500    950.53323   -58463.533    59.500539   -58404.032    3.2983269 0.00023940567 
   11000        11000    705.12834   -58456.932    44.138927   -58412.793    2.0810516 0.00023940567 
   11500        11500    660.63123   -58461.014    41.353541    -58419.66   -3.3064261 0.00023940567 
   12000        12000    648.50305   -58457.718    40.594353   -58417.124   0.98149695 0.00023940567 
   12500        12500    612.41238   -58452.882    38.335184   -58414.547    -1.883266 0.00023940567 
   13000        13000    666.84666    -58453.52    41.742608   -58411.778   0.64281876 0.00023940567 
   13500        13500    598.60007   -58453.389    37.470575   -58415.918   -4.1901448 0.00023940567 
   14000        14000    641.71293   -58462.136    40.169312   -58421.967   0.88262214 0.00023940567 
   14500        14500    564.39933   -58457.873    35.329711   -58422.543   0.80688155 0.00023940567 
   15000        15000    542.30426   -58461.803    33.946626   -58427.857     2.542966 0.00023940567 
   15500        15500     394.0622   -58457.516    24.667116   -58432.849   -1.8154333 0.00023940567 
   16000        16000    403.48193   -58460.404    25.256763   -58435.147   0.16880677 0.00023940567 
   16500        16500    555.77872   -58459.763    34.790087   -58424.973   -3.4900273 0.00023940567 
   17000        17000    604.70301   -58459.684    37.852601   -58421.831    3.0545475 0.00023940567 
   17500        17500    481.31215   -58453.349    30.128702    -58423.22   -4.3130044 0.00023940567 
   18000        18000    541.11044   -58462.797    33.871896   -58428.925    2.1909947 0.00023940567 
   18500        18500    623.59247   -58463.748    39.035025   -58424.713   0.37217777 0.00023940567 
   19000        19000    524.71762   -58462.383    32.845754   -58429.537    1.6546109 0.00023940567 
   19500        19500     427.6588   -58464.294    26.770163   -58437.524    4.2429541 0.00023940567 
   20000        20000     421.3235   -58461.435    26.373592   -58435.061   0.64940647 0.00023940567 
   20500        20500    426.93954   -58455.066    26.725139   -58428.341    1.7986124 0.00023940567 
   21000        21000    549.29934   -58460.096    34.384497   -58425.711  -0.11657782 0.00023940567 
   21500        21500    520.60512   -58460.242    32.588324   -58427.653  -0.74989403 0.00023940567 
   22000        22000    619.08586   -58464.731    38.752924   -58425.978   -1.3305124 0.00023940567 
   22500        22500    553.66979   -58462.265    34.658074   -58427.607   -1.1672295 0.00023940567 
   23000        23000     587.9559   -58458.168    36.804282   -58421.363    4.7962256 0.00023940567 
   23500        23500    552.00757   -58458.616    34.554024   -58424.062    3.0194037 0.00023940567 
   24000        24000    453.39869   -58455.834    28.381403   -58427.452    4.7234695 0.00023940567 
   24500        24500    620.26871   -58459.211    38.826967   -58420.384    4.9483568 0.00023940567 
   25000        25000    670.86445   -58451.569    41.994109   -58409.575    2.9966791 0.00023940567 
   25500        25500    589.47929   -58455.818    36.899641   -58418.918    5.7105749 0.00023940567 
   26000        26000    611.37115   -58457.726    38.270007   -58419.456   0.67674456 0.00023940567 
   26500        26500    564.33041   -58461.559    35.325397   -58426.234     2.581971 0.00023940567 
   27000        27000    651.77674    -58457.14    40.799276   -58416.341   -1.5812392 0.00023940567 
   27500        27500     622.2565   -58457.754    38.951397   -58418.802    2.8810226 0.00023940567 
   28000        28000    470.40401   -58458.385    29.445885    -58428.94   -1.8209527 0.00023940567 
   28500        28500    622.94267   -58462.396    38.994349   -58423.402    4.3308044 0.00023940567 
   29000        29000    439.44438   -58458.595    27.507905   -58431.088    5.5349771 0.00023940567 
   29500        29500    620.76438   -58462.835    38.857995   -58423.977    3.9706469 0.00023940567 
   30000        30000    533.79599   -58460.623    33.414033   -58427.209   -1.2726041 0.00023940567 
   30500        30500    460.52245   -58462.559    28.827329   -58433.731   0.56442187 0.00023940567 
   31000        31000    475.46127   -58458.219    29.762454   -58428.457    3.0574701 0.00023940567 
   31500        31500    634.30083   -58459.865    39.705336    -58420.16    2.6070023 0.00023940567 
   32000        32000    607.15521   -58461.521    38.006101   -58423.514    2.9987442 0.00023940567 
   32500        32500     593.7517   -58456.856    37.167081   -58419.689   0.46500396 0.00023940567 
   33000        33000    562.36557   -58458.067    35.202404   -58422.865   -3.4078317 0.00023940567 
   33500        33500    666.42601   -58463.112    41.716276   -58421.396    1.3224816 0.00023940567 
   34000        34000    662.99406   -58461.229    41.501446   -58419.728    1.6973621 0.00023940567 
   34500        34500    616.05734   -58456.838    38.563348   -58418.275    -2.357994 0.00023940567 
   35000        35000    752.87831   -58455.653    47.127932   -58408.525    3.4352827 0.00023940567 
   35500        35500    694.53058   -58457.468    43.475538   -58413.992    2.4723056 0.00023940567 
   36000        36000    562.52959   -58452.069    35.212671   -58416.857    1.8933724 0.00023940567 
   36500        36500    656.17371   -58461.606    41.074513   -58420.532    3.0809812 0.00023940567 
   37000        37000     597.4817   -58453.174    37.400568   -58415.774    1.3331361 0.00023940567 
   37500        37500     621.8912   -58456.217     38.92853   -58417.289    2.4351959 0.00023940567 
   38000        38000    659.66665   -58461.195     41.29316   -58419.902  0.063830067 0.00023940567 
   38500        38500    626.77037    -58453.12    39.233952   -58413.886   -2.1787367 0.00023940567 
   39000        39000    690.70162   -58450.878    43.235857   -58407.642   -5.5823498 0.00023940567 
   39500        39500    787.28389   -58462.866    49.281618   -58413.585  -0.38271897 0.00023940567 
   40000        40000     608.1311   -58456.893    38.067189   -58418.826    5.3230466 0.00023940567 
   40500        40500    621.59817   -58458.246    38.910188   -58419.335    1.8894183 0.00023940567 
   41000        41000    590.92151   -58456.322     36.98992   -58419.332     1.017991 0.00023940567 
   41500        41500     620.2665   -58455.625    38.826829   -58416.798   -1.1194484 0.00023940567 
   42000        42000    654.70608   -58458.997    40.982644   -58418.015    5.5699674 0.00023940567 
   42500        42500    611.49989    -58462.37    38.278066   -58424.092   0.93703841 0.00023940567 
   43000        43000    561.60256   -58457.924    35.154642    -58422.77   -2.7586499 0.00023940567 
   43500        43500    665.69069   -58456.435    41.670247   -58414.765  -0.98494973 0.00023940567 
   44000        44000    641.63843   -58466.433    40.164648   -58426.269   0.28352491 0.00023940567 
   44500        44500    493.85277   -58455.632    30.913707   -58424.718   0.83708953 0.00023940567 
   45000        45000    519.24536    -58459.48    32.503208   -58426.977   -3.5623512 0.00023940567 
   45500        45500     671.3072   -58464.532    42.021824    -58422.51   0.43698455 0.00023940567 
   46000        46000    488.99101   -58461.987    30.609376   -58431.378    2.0451656 0.00023940567 
   46500        46500    547.22868   -58459.543     34.25488   -58425.288  0.022190127 0.00023940567 
   47000        47000    454.66834   -58464.635    28.460879   -58436.174     1.787368 0.00023940567 
   47500        47500    581.73307   -58462.657    36.414751   -58426.242    2.6266256 0.00023940567 
   48000        48000    515.01329   -58457.397    32.238293   -58425.159   -2.1661866 0.00023940567 
   48500        48500    605.41144    -58461.96    37.896947   -58424.063   -0.1998025 0.00023940567 
   49000        49000    604.64316   -58462.714    37.848855   -58424.865  -0.73741495 0.00023940567 
   49500        49500    433.44403    -58458.87    27.132301   -58431.737     3.948084 0.00023940567 
   50000        50000     546.2395   -58459.328     34.19296   -58425.135    3.0862894 0.00023940567 
   50500        50500    724.22293   -58463.514    45.334191    -58418.18     2.404659 0.00023940567 
   51000        51000    723.94563   -58460.853    45.316833   -58415.536    1.6266501 0.00023940567 
   51500        51500    638.28775   -58455.177    39.954906   -58415.222     2.049216 0.00023940567 
   52000        52000    565.65894   -58455.922    35.408559   -58420.513   -2.9968873 0.00023940567 
   52500        52500    836.05741     -58457.1    52.334695   -58404.765   -2.9356723 0.00023940567 
   53000        53000     818.8647   -58459.561    51.258483   -58408.303   0.44562872 0.00023940567 
   53500        53500    651.54766   -58462.903    40.784936   -58422.118    1.9842877 0.00023940567 
   54000        54000    497.41104   -58458.156    31.136445   -58427.019   0.44800514 0.00023940567 
   54500        54500    558.24275   -58460.186    34.944328   -58425.241   -1.6885791 0.00023940567 
   55000        55000     605.3663   -58462.022    37.894121   -58424.128   -2.8400901 0.00023940567 
   55500        55500    575.94393   -58466.078    36.052368   -58430.026   -1.6228616 0.00023940567 
   56000        56000    583.24432   -58464.208    36.509351   -58427.699  -0.32146174 0.00023940567 
   56500        56500    507.95076   -58460.227    31.796199   -58428.431    0.6030913 0.00023940567 
   57000        57000    598.51627   -58462.191     37.46533   -58424.726   0.30324831 0.00023940567 
   57500        57500    472.76689   -58457.051    29.593794   -58427.457   -2.1719178 0.00023940567 
   58000        58000    474.82956   -58461.721    29.722911   -58431.999   -1.4017926 0.00023940567 
   58500        58500    482.40669   -58459.081    30.197217   -58428.883    1.4175609 0.00023940567 
   59000        59000    560.29109   -58464.907    35.072547   -58429.834    -2.606563 0.00023940567 
   59500        59500    634.56624   -58468.313     39.72195   -58428.592  -0.74806879 0.00023940567 
   60000        60000    533.77703   -58458.352    33.412846   -58424.939    1.4417516 0.00023940567 
   60500        60500    549.50127   -58462.297    34.397137   -58427.899   0.61805682 0.00023940567 
   61000        61000    483.52594   -58463.949    30.267278   -58433.682    1.5038511 0.00023940567 
   61500        61500    549.35376   -58464.705    34.387903   -58430.317    4.8729709 0.00023940567 
   62000        62000     626.0337   -58459.745    39.187839   -58420.558     1.417065 0.00023940567 
   62500        62500    700.53106   -58456.144     43.85115   -58412.292    4.1203383 0.00023940567 
   63000        63000    682.68152   -58459.835    42.733822   -58417.102    2.6483177 0.00023940567 
   63500        63500    650.18308   -58453.817    40.699517   -58413.118   -6.9459625 0.00023940567 
   64000        64000    698.87974   -58464.932    43.747783   -58421.185  -0.52962819 0.00023940567 
   64500        64500    539.35423   -58459.309    33.761963   -58425.547    3.3881582 0.00023940567 
   65000        65000     595.6717   -58465.455    37.287268   -58428.168   0.92748222 0.00023940567 
   65500        65500    384.84871   -58463.203    24.090379   -58439.113   -2.1037371 0.00023940567 
   66000        66000    551.13559   -58465.293    34.499441   -58430.793   -1.8090594 0.00023940567 
   66500        66500    442.89537   -58455.869    27.723927   -58428.145    5.7567123 0.00023940567 
   67000        67000    530.12758   -58459.644    33.184402    -58426.46    1.8437763 0.00023940567 
   67500        67500    507.02689   -58459.695    31.738368   -58427.956   0.59201633 0.00023940567 
   68000        68000    468.78442   -58461.985    29.344503   -58432.641    3.7272316 0.00023940567 
   68500        68500    460.71913   -58461.575     28.83964   -58432.735    1.6882931 0.00023940567 
   69000        69000    567.04426    -58463.68    35.495276   -58428.185 -0.051591099 0.00023940567 
   69500        69500    536.03802   -58458.905    33.554378   -58425.351    1.5335036 0.00023940567 
   70000        70000    628.00004   -58460.971    39.310926   -58421.661     2.496386 0.00023940567 
   70500        70500    741.21577   -58459.119    46.397892   -58412.721  0.072312279 0.00023940567 
   71000        71000    655.38512    -58459.77    41.025149   -58418.745    4.1468177 0.00023940567 
   71500        71500    681.97435   -58461.856    42.689556   -58419.166   0.61381913 0.00023940567 
   72000        72000    636.40456   -58459.051    39.837024   -58419.214    3.4849732 0.00023940567 
   72500        72500    715.80469   -58456.491    44.807234   -58411.683    3.0673761 0.00023940567 
   73000        73000    785.35131   -58448.099    49.160645   -58398.938    2.9888629 0.00023940567 
   73500        73500    685.83559   -58455.234    42.931258   -58412.303   0.24159665 0.00023940567 
   74000        74000    643.96842   -58456.734    40.310498   -58416.423    25.914079 0.00023940567 
   74500        74500    679.22172   -58457.167    42.517249   -58414.649   -18.516077 0.00023940567 
   75000        75000    658.26021   -58454.484    41.205122   -58413.279    7.3370187 0.00023940567 
   75500        75500    866.82864   -58463.045    54.260882   -58408.784   -16.569086 0.00023940567 
   76000        76000    736.62551   -58453.523    46.110555   -58407.412    42.913651 0.00023940567 
   76500        76500     483.0996   -58454.358    30.240591   -58424.117   -14.855289 0.00023940567 
   77000        77000    640.19685    -58460.66    40.074409   -58420.586    13.037588 0.00023940567 
   77500        77500    619.90654   -58458.333    38.804296   -58419.528    34.762121 0.00023940567 
   78000        78000    699.04493   -58462.283    43.758123   -58418.525    25.800601 0.00023940567 
   78500        78500    582.92932   -58452.153    36.489633   -58415.664   -60.933584 0.00023940567 
   79000        79000    590.38197    -58455.22    36.956147   -58418.264    23.075024 0.00023940567 
   79500        79500    690.70141   -58455.344    43.235844   -58412.108    42.844439 0.00023940567 
   80000        80000    702.05369   -58460.807    43.946463   -58416.861   -23.749596 0.00023940567 
   80500        80500    693.85957   -58453.735    43.433535   -58410.302    23.398283 0.00023940567 
   81000        81000    671.69118   -58457.583     42.04586   -58415.538    7.7929944 0.00023940567 
   81500        81500    697.99101   -58455.029    43.692151   -58411.336    -20.63121 0.00023940567 
   82000        82000    751.08477   -58461.369    47.015662   -58414.354 -0.041239731 0.00023940567 
   82500        82500    618.34995   -58459.915    38.706859   -58421.208  -0.42976031 0.00023940567 
   83000        83000    544.95155    -58455.68    34.112338   -58421.568   -1.7016511 0.00023940567 
   83500        83500    536.18334   -58455.195    33.563475   -58421.631   0.32772992 0.00023940567 
   84000        84000    415.47946   -58453.801    26.007772   -58427.793    1.3047645 0.00023940567 
   84500        84500    486.87317   -58458.697    30.476805    -58428.22   0.28428781 0.00023940567 
   85000        85000    450.30244   -58461.877    28.187587    -58433.69   0.17485943 0.00023940567 
   85500        85500    537.13802   -58460.366    33.623235   -58426.742   -1.4417883 0.00023940567 
   86000        86000    543.58818   -58459.692    34.026995   -58425.665   0.64009543 0.00023940567 
   86500        86500    594.99448    -58453.68    37.244876   -58416.436   -1.2291242 0.00023940567 
   87000        87000    627.53519   -58451.752    39.281827    -58412.47    2.9139965 0.00023940567 
   87500        87500    746.03833   -58453.972    46.699769   -58407.272 -0.082630919 0.00023940567 
   88000        88000    662.88645   -58457.322     41.49471   -58415.827    3.5585017 0.00023940567 
   88500        88500    707.94172   -58458.479    44.315036   -58414.164    2.9153281 0.00023940567 
   89000        89000    579.79248   -58453.727    36.293276   -58417.433   -1.8549925 0.00023940567 
   89500        89500    534.88138    -58455.76    33.481976   -58422.278   0.44976021 0.00023940567 
   90000        90000    529.39517   -58461.041    33.138556   -58427.902   -2.9362229 0.00023940567 
   90500        90500    584.88455   -58460.139    36.612025   -58423.527   0.40603923 0.00023940567 
   91000        91000    404.28406   -58456.526    25.306974   -58431.219    3.2512764 0.00023940567 
   91500        91500     632.7155   -58462.277    39.606099   -58422.671     6.091977 0.00023940567 
   92000        92000    597.63055   -58461.918    37.409886   -58424.508   0.25359602 0.00023940567 
   92500        92500    454.20707   -58456.723    28.432005   -58428.291   -3.9921426 0.00023940567 
   93000        93000    404.08045   -58460.917    25.294228   -58435.623   -1.1236825 0.00023940567 
   93500        93500    464.43746   -58461.858    29.072397   -58432.785    1.0687764 0.00023940567 
   94000        94000    535.75196   -58460.977    33.536471    -58427.44    4.1593208 0.00023940567 
   94500        94500    541.96202   -58455.249    33.925202   -58421.324    2.2727809 0.00023940567 
   95000        95000     447.6109   -58456.304    28.019104   -58428.285   0.10297904 0.00023940567 
   95500        95500    420.51224   -58459.809    26.322809   -58433.486   -3.9735768 0.00023940567 
   96000        96000    426.79257   -58459.706    26.715939    -58432.99    5.9222562 0.00023940567 
   96500        96500    531.37431   -58458.457    33.262444   -58425.194   -1.7539261 0.00023940567 
   97000        97000    571.75136   -58458.465    35.789926   -58422.675   -4.1381161 0.00023940567 
   97500        97500    508.02017   -58457.789    31.800544   -58425.989   -2.2449223 0.00023940567 
   98000        98000     479.5898   -58460.292    30.020888   -58430.271    4.7275852 0.00023940567 
   98500        98500    374.41068   -58461.149     23.43699   -58437.712    1.6868789 0.00023940567 
   99000        99000    533.93841   -58462.309    33.422948   -58428.886    1.0388045 0.00023940567 
   99500        99500     504.9793   -58454.729    31.610195   -58423.118    1.8587502 0.00023940567 
  100000       100000    546.60158   -58459.703    34.215625   -58425.487  -0.65406254 0.00023940567 
  100500       100500    622.43194   -58457.798    38.962379   -58418.835   -1.2340562 0.00023940567 
  101000       101000    619.45649   -58448.622    38.776125   -58409.845  -0.73121744 0.00023940567 
  101500       101500    645.15173   -58458.301     40.38457   -58417.916   -4.1118896 0.00023940567 
  102000       102000    570.96118   -58462.442    35.740463   -58426.702   -1.9288102 0.00023940567 
  102500       102500    486.39582   -58465.003    30.446924   -58434.556  -0.35302431 0.00023940567 
  103000       103000    550.81323    -58455.71    34.479262   -58421.231  0.052757717 0.00023940567 
  103500       103500     557.6155   -58457.032    34.905064   -58422.127   -6.6628823 0.00023940567 
  104000       104000    470.07063   -58457.816    29.425017   -58428.391   -1.8000742 0.00023940567 
  104500       104500    577.44937   -58458.885    36.146605   -58422.738   -2.7906088 0.00023940567 
  105000       105000     561.1169   -58464.933    35.124241   -58429.809   -3.1325228 0.00023940567 
  105500       105500    540.48752   -58457.152    33.832903   -58423.319    7.0565503 0.00023940567 
  106000       106000    601.40537   -58464.252    37.646179   -58426.606   -8.9590156 0.00023940567 
  106500       106500    439.45824   -58458.878    27.508772   -58431.369   -56.573443 0.00023940567 
  107000       107000    471.98032   -58464.033    29.544557   -58434.489    16.804983 0.00023940567 
  107500       107500    472.21501   -58465.562    29.559248   -58436.003    2.9407845 0.00023940567 
  108000       108000    539.97581   -58461.589    33.800872   -58427.788    24.496639 0.00023940567 
  108500       108500    589.13416   -58457.979    36.878037   -58421.101   -5.2803813 0.00023940567 
  109000       109000    540.77406   -58462.474     33.85084   -58428.623    41.930415 0.00023940567 
  109500       109500     405.3292   -58459.931    25.372396   -58434.558    11.499429 0.00023940567 
  110000       110000     517.1969   -58465.292     32.37498   -58432.918   -16.546033 0.00023940567 
  110500       110500    515.63298   -58458.986    32.277083   -58426.709    38.150998 0.00023940567 
  111000       111000    567.50284   -58456.807    35.523981   -58421.283    6.5876153 0.00023940567 
  111500       111500    625.82855   -58462.398    39.174997   -58423.223   -9.5703833 0.00023940567 
  112000       112000    540.21365   -58462.588     33.81576   -58428.772    18.762461 0.00023940567 
  112500       112500    511.18946    -58464.07    31.998932   -58432.071    9.8020804 0.00023940567 
  113000       113000    440.60683   -58462.847    27.580671   -58435.266   0.94351519 0.00023940567 
  113500       113500    544.58518   -58455.799    34.089405    -58421.71  -0.14240498 0.00023940567 
  114000       114000    578.54755   -58454.037    36.215347   -58417.822    6.1137187 0.00023940567 
  114500       114500    510.44574   -58451.582    31.952377    -58419.63    -39.82309 0.00023940567 
  115000       115000    623.21655   -58456.888    39.011493   -58417.876    51.825492 0.00023940567 
  115500       115500    592.67433   -58462.196    37.099641   -58425.096    42.579708 0.00023940567 
  116000       116000    588.88662   -58454.686    36.862542   -58417.824    16.630855 0.00023940567 
  116500       116500    654.79942   -58457.369    40.988486   -58416.381    38.788756 0.00023940567 
  117000       117000    743.10104   -58462.188    46.515904   -58415.672     24.63043 0.00023940567 
  117500       117500    741.80457    -58457.12    46.434749   -58410.685   -14.203767 0.00023940567 
  118000       118000    596.66148   -58451.231    37.349225   -58413.882   -67.481176 0.00023940567 
  118500       118500    778.97823   -58459.354    48.761709   -58410.592   -65.958298 0.00023940567 
  119000       119000    628.79422   -58452.855    39.360639   -58413.494    85.062499 0.00023940567 
  119500       119500    670.16849   -58462.147    41.950544   -58420.196   -68.597595 0.00023940567 
  120000       120000    501.33293   -58456.835    31.381943   -58425.454    35.228468 0.00023940567 
  120500       120500    599.53245   -58458.773     37.52894   -58421.244   -25.229082 0.00023940567 
  121000       121000    614.02482    -58458.05    38.436119   -58419.614   -42.864593 0.00023940567 
  121500       121500    686.78684   -58461.906    42.990804   -58418.915    7.8798644 0.00023940567 
  122000       122000    575.68883   -58455.943      36.0364   -58419.907    4.9756091 0.00023940567 
  122500       122500    624.89632    -58459.27    39.116642   -58420.154  -0.99003171 0.00023940567 
  123000       123000    594.29362   -58451.113    37.201004   -58413.912   -70.794529 0.00023940567 
  123500       123500    614.25117    -58449.89    38.450287    -58411.44    121.88612 0.00023940567 
  124000       124000    616.60979   -58461.397     38.59793   -58422.799   -10.173605 0.00023940567 
  124500       124500    509.38106   -58459.901    31.885732   -58428.015    3.7054646 0.00023940567 
  125000       125000     417.4057   -58459.869    26.128349   -58433.741   -29.209988 0.00023940567 
  125500       125500    631.69481   -58459.723    39.542207   -58420.181    -47.60527 0.00023940567 
  126000       126000    589.99403   -58456.693    36.931863   -58419.761     118.3866 0.00023940567 
  126500       126500    622.39894   -58451.842    38.960314   -58412.881    92.987406 0.00023940567 
  127000       127000    920.30277   -58455.646    57.608203   -58398.038    69.616551 0.00023940567 
  127500       127500    788.27326   -58460.279     49.34355   -58410.935    16.522965 0.00023940567 
  128000       128000    616.30147   -58454.337     38.57863   -58415.758    8.2019381 0.00023940567 
  128500       128500    677.34449   -58462.788     42.39974   -58420.388    23.522582 0.00023940567 
  129000       129000    593.58582   -58455.151    37.156698   -58417.994   -7.8270627 0.00023940567 
  129500       129500    580.57993   -58457.197    36.342568   -58420.855    20.061241 0.00023940567 
  130000       130000      368.343   -58459.202    23.057171   -58436.145    11.868739 0.00023940567 
  130500       130500    451.83021     -58462.4    28.283221   -58434.117   -8.2888702 0.00023940567 
  131000       131000    440.99133   -58454.193    27.604739   -58426.588   -2.6769228 0.00023940567 
  131500       131500    593.86528   -58459.716    37.174191   -58422.542    1.1577204 0.00023940567 
  132000       132000    633.16494   -58461.193    39.634232   -58421.558    2.6867178 0.00023940567 
  132500       132500     660.5138     -58455.9     41.34619   -58414.554   -1.2842996 0.00023940567 
  133000       133000    651.13206   -58458.277     40.75892   -58417.518   0.98216925 0.00023940567 
  133500       133500    709.83269   -58454.268    44.433405   -58409.834    6.5622262 0.00023940567 
  134000       134000    650.83461   -58458.462    40.740301   -58417.721   0.06023587 0.00023940567 
  134500       134500    686.47413   -58455.942    42.971228    -58412.97    -2.622712 0.00023940567 
  135000       135000    463.56482   -58460.978    29.017772    -58431.96    2.5412956 0.00023940567 
  135500       135500    489.48266   -58463.015    30.640152   -58432.375   -1.0167648 0.00023940567 
  136000       136000    498.12507   -58457.091     31.18114    -58425.91    1.2280088 0.00023940567 
  136500       136500     496.9397   -58457.812     31.10694   -58426.705 -0.056456647 0.00023940567 
  137000       137000    451.07013   -58462.706    28.235642    -58434.47   -2.8618229 0.00023940567 
  137500       137500    480.63207   -58449.798    30.086131   -58419.712    1.4247477 0.00023940567 
  138000       138000    558.36544   -58449.735    34.952008   -58414.783    2.5276934 0.00023940567 
  138500       138500    655.90584   -58454.119    41.057745   -58413.062    0.5784681 0.00023940567 
  139000       139000    802.50194   -58452.919    50.234223   -58402.685    1.5283598 0.00023940567 
  139500       139500    731.71215   -58452.766    45.802993   -58406.963    1.8534774 0.00023940567 
  140000       140000    610.44938   -58452.629    38.212307   -58414.416  -0.62101077 0.00023940567 
  140500       140500    889.93101   -58456.809    55.707021   -58401.102   -1.8322577 0.00023940567 
  141000       141000    698.33363   -58449.631    43.713598   -58405.918    7.5698741 0.00023940567 
  141500       141500    782.78767   -58460.453    49.000168   -58411.453   -2.5277765 0.00023940567 
  142000       142000    669.73818   -58461.022    41.923608   -58419.099    1.1426733 0.00023940567 
  142500       142500     496.2306   -58457.872    31.062552    -58426.81   -2.1460298 0.00023940567 
  143000       143000    630.64731   -58462.216    39.476637    -58422.74   -1.7438986 0.00023940567 
  143500       143500    492.03982   -58454.259    30.800222   -58423.459    1.9977477 0.00023940567 
  144000       144000    506.92417   -58455.249    31.731938   -58423.517    4.8307674 0.00023940567 
  144500       144500    619.31137   -58455.717    38.767041    -58416.95   -2.4561694 0.00023940567 
  145000       145000    649.44741   -58452.594    40.653467   -58411.941    2.2122636 0.00023940567 
  145500       145500    527.85136    -58449.64    33.041917   -58416.598     -2.95554 0.00023940567 
  146000       146000     664.2248    -58461.38    41.578487   -58419.802     4.109592 0.00023940567 
  146500       146500    517.34913   -58460.704    32.384509    -58428.32    1.7458438 0.00023940567 
  147000       147000    469.81633   -58464.162    29.409098   -58434.753    6.0716476 0.00023940567 
  147500       147500    564.24712   -58464.651    35.320183    -58429.33   -3.7033903 0.00023940567 
  148000       148000    572.05662   -58460.644    35.809035   -58424.835    0.7384367 0.00023940567 
  148500       148500    573.45217     -58459.8    35.896392   -58423.903    4.9707436 0.00023940567 
  149000       149000    519.20787   -58464.081    32.500861    -58431.58   -2.8515878 0.00023940567 
  149500       149500    566.64092   -58458.171    35.470028   -58422.701  -0.26495529 0.00023940567 
  150000       150000     502.0042   -58463.215    31.423962   -58431.791   -5.4985565 0.00023940567 
  150500       150500    497.82156   -58455.996    31.162141   -58424.834   -1.3009131 0.00023940567 
  151000       151000     482.5328   -58461.082    30.205111   -58430.877  -0.49392095 0.00023940567 
  151500       151500    447.29953   -58461.032    27.999614   -58433.032    1.7961096 0.00023940567 
  152000       152000    533.27523   -58461.996    33.381436   -58428.615    1.2402467 0.00023940567 
  152500       152500     611.0426   -58460.876    38.249441   -58422.626    2.0916124 0.00023940567 
  153000       153000    554.30694   -58459.852    34.697957   -58425.154    5.4033119 0.00023940567 
  153500       153500    590.52819   -58455.332      36.9653   -58418.367    1.8332563 0.00023940567 
  154000       154000    616.38668   -58463.955    38.583964   -58425.371     1.970984 0.00023940567 
  154500       154500    466.10281   -58457.527    29.176643    -58428.35   -2.5384203 0.00023940567 
  155000       155000    457.20395   -58463.122    28.619601   -58434.503   -2.2107243 0.00023940567 
  155500       155500      464.794   -58458.278    29.094715   -58429.183    4.8107138 0.00023940567 
  156000       156000    460.35736   -58456.032    28.816995   -58427.215   -1.9232078 0.00023940567 
  156500       156500     574.5612   -58458.401    35.965814   -58422.435   -1.1314628 0.00023940567 
  157000       157000    624.23742    -58460.92    39.075396   -58421.845     1.187312 0.00023940567 
  157500       157500    675.96275    -58457.49    42.313248   -58415.176    1.5766358 0.00023940567 
  158000       158000    663.78816    -58458.17    41.551155   -58416.619    2.8847274 0.00023940567 
  158500       158500    537.60579   -58458.623    33.652516    -58424.97  -0.55716156 0.00023940567 
  159000       159000    508.25947   -58457.686    31.815523   -58425.871    3.8403595 0.00023940567 
  159500       159500    512.25043    -58463.18    32.065346   -58431.115   -2.1386801 0.00023940567 
  160000       160000    653.81906       -58461    40.927119   -58420.073     5.084131 0.00023940567 
  160500       160500     648.9023   -58460.221    40.619345   -58419.602  -0.57782949 0.00023940567 
  161000       161000    552.37636   -58458.302    34.577109   -58423.725    1.0816375 0.00023940567 
  161500       161500    704.62776    -58456.51    44.107592   -58412.402   -2.6384101 0.00023940567 
  162000       162000    656.47253   -58457.888    41.093218   -58416.794    1.6007742 0.00023940567 
  162500       162500    701.44282   -58452.781    43.908224   -58408.873    3.2996499 0.00023940567 
  163000       163000    664.05339   -58457.091    41.567757   -58415.523   -3.5822746 0.00023940567 
  163500       163500    669.59425   -58460.272    41.914599   -58418.357    1.9325941 0.00023940567 
  164000       164000     627.9109   -58462.524    39.305346   -58423.219  -0.55132227 0.00023940567 
  164500       164500    639.80016   -58458.492    40.049577   -58418.443   -1.1974988 0.00023940567 
  165000       165000    541.07534     -58454.3    33.869699   -58420.431   0.16573208 0.00023940567 
  165500       165500    476.64847   -58458.787    29.836769   -58428.951    6.1169661 0.00023940567 
  166000       166000    408.11262   -58459.832     25.54663   -58434.285  -0.72090847 0.00023940567 
  166500       166500    505.77545   -58459.799    31.660032   -58428.139   -1.3752077 0.00023940567 
  167000       167000    580.44941   -58461.184    36.334398    -58424.85   -2.6077068 0.00023940567 
  167500       167500    562.50774   -58454.584    35.211303   -58419.373    5.1308904 0.00023940567 
  168000       168000    484.67969   -58457.768      30.3395   -58427.429   -7.4530148 0.00023940567 
  168500       168500    631.32454    -58457.38    39.519029   -58417.861   0.26874818 0.00023940567 
  169000       169000    621.29553   -58455.346    38.891243   -58416.455   0.98084214 0.00023940567 
  169500       169500    538.23186   -58454.209    33.691706   -58420.518   -5.8027625 0.00023940567 
  170000       170000    640.95382   -58459.642    40.121794    -58419.52    5.4655068 0.00023940567 
  170500       170500    493.35469   -58459.917    30.882529   -58429.035     1.474332 0.00023940567 
  171000       171000    403.31184   -58459.197    25.246116   -58433.951     -1.81039 0.00023940567 
  171500       171500    495.88942   -58456.231    31.041196    -58425.19    3.0064944 0.00023940567 
  172000       172000    585.63724   -58457.749    36.659141    -58421.09   -2.2371487 0.00023940567 
  172500       172500     444.5505   -58457.767    27.827532   -58429.939    6.0611699 0.00023940567 
  173000       173000    628.80322   -58461.528    39.361202   -58422.166    4.0955565 0.00023940567 
  173500       173500    424.75146   -58455.421    26.588172   -58428.833    0.2063906 0.00023940567 
  174000       174000    556.54493    -58462.06    34.838049   -58427.222   -1.4559977 0.00023940567 
  174500       174500    588.27883   -58461.215    36.824496   -58424.391    2.2906881 0.00023940567 
  175000       175000    544.47124   -58460.112    34.082272    -58426.03   -1.2895241 0.00023940567 
  175500       175500    414.56169    -58457.11    25.950323    -58431.16    5.9595281 0.00023940567 
  176000       176000     630.9774   -58459.756    39.497299   -58420.259    2.7688035 0.00023940567 
  176500       176500     675.3466    -58461.18    42.274678   -58418.906   -2.5866508 0.00023940567 
  177000       177000    608.97069   -58455.542    38.119745   -58417.423  -0.39348272 0.00023940567 
  177500       177500    620.25016   -58451.282    38.825806   -58412.456    4.6672506 0.00023940567 
  178000       178000    715.92075    -58451.03    44.814499   -58406.215    1.7606378 0.00023940567 
  178500       178500    873.12907   -58451.251     54.65527   -58396.596   0.28472315 0.00023940567 
  179000       179000    687.48358   -58455.083    43.034418   -58412.048    2.7226144 0.00023940567 
  179500       179500    621.11042   -58456.873    38.879656   -58417.994   0.52573809 0.00023940567 
  180000       180000    775.55366   -58459.676    48.547341   -58411.129    3.2771001 0.00023940567 
  180500       180500    595.08846   -58456.609    37.250759   -58419.359    2.4181598 0.00023940567 
  181000       181000    589.24155   -58458.138     36.88476   -58421.253   0.49003251 0.00023940567 
  181500       181500    507.45859   -58462.421    31.765391   -58430.656   -4.2734123 0.00023940567 
  182000       182000    515.28292    -58467.28    32.255171   -58435.024  -0.71292458 0.00023940567 
  182500       182500    471.42371   -58454.093    29.509715   -58424.583   -4.8682271 0.00023940567 
  183000       183000    589.59139   -58457.016    36.906659   -58420.109   0.60320406 0.00023940567 
  183500       183500    521.24119   -58460.022     32.62814   -58427.394  -0.91118669 0.00023940567 
  184000       184000    467.04848   -58458.178    29.235839   -58428.942   -3.7394075 0.00023940567 
  184500       184500    536.31235   -58460.479     33.57155   -58426.907  -0.48008867 0.00023940567 
  185000       185000    604.75898    -58454.75    37.856104   -58416.894    6.0698283 0.00023940567 
  185500       185500    664.93106   -58455.314    41.622697   -58413.691    1.2402288 0.00023940567 
  186000       186000    754.25087   -58462.183     47.21385   -58414.969   0.85709507 0.00023940567 
  186500       186500    713.71949   -58456.972    44.676707   -58412.295    5.0996108 0.00023940567 
  187000       187000      625.623   -58447.622     39.16213   -58408.459   -4.6438463 0.00023940567 
  187500       187500    774.15973   -58453.862    48.460085   -58405.402  -0.43918281 0.00023940567 
  188000       188000     710.8739   -58466.724    44.498581   -58422.225   -2.2193795 0.00023940567 
  188500       188500    513.47737   -58458.631    32.142149   -58426.488    4.2000553 0.00023940567 
  189000       189000    408.31984   -58454.193    25.559601   -58428.633   -1.7677658 0.00023940567 
  189500       189500    492.89651    -58460.61    30.853848   -58429.757   0.29921973 0.00023940567 
  190000       190000    415.21224   -58456.338    25.991045   -58430.347   -1.6521712 0.00023940567 
  190500       190500    545.00131   -58459.683    34.115453   -58425.568    1.0379054 0.00023940567 
  191000       191000    599.03531   -58461.454     37.49782   -58423.957    3.2970048 0.00023940567 
  191500       191500    569.54551   -58465.734    35.651847   -58430.082  -0.57711855 0.00023940567 
  192000       192000    663.18603   -58462.792    41.513463   -58421.279    1.3525892 0.00023940567 
  192500       192500    523.91336   -58462.259    32.795411   -58429.463   0.90162798 0.00023940567 
  193000       193000    476.23637   -58454.383    29.810973   -58424.572   -1.1144648 0.00023940567 
  193500       193500    535.11435   -58458.361    33.496559   -58424.865    3.8998591 0.00023940567 
  194000       194000    580.43907   -58457.055    36.333751   -58420.721    2.9648906 0.00023940567 
  194500       194500    655.22297   -58462.053       41.015   -58421.038    3.0619863 0.00023940567 
  195000       195000    866.96026   -58460.491    54.269121   -58406.222   0.02547993 0.00023940567 
  195500       195500    497.44795   -58450.296    31.138755   -58419.157    3.0151483 0.00023940567 
  196000       196000    581.40663   -58454.769    36.394317   -58418.375    3.9452581 0.00023940567 
  196500       196500    694.62221   -58462.907    43.481274   -58419.426    7.5973681 0.00023940567 
  197000       197000    779.75127    -58461.76    48.810099    -58412.95   0.30094592 0.00023940567 
  197500       197500    806.41006   -58453.452     50.47886   -58402.973    0.6169091 0.00023940567 
  198000       198000    778.02911   -58448.168    48.702297   -58399.465    3.3637952 0.00023940567 
  198500       198500    641.94646    -58457.98     40.18393   -58417.796    2.3443787 0.00023940567 
  199000       199000    631.34857   -58460.722    39.520534   -58421.201    7.6931515 0.00023940567 
  199500       199500    536.21617   -58458.774     33.56553   -58425.209  0.062852244 0.00023940567 
  200000       200000    552.93122   -58458.832    34.611842    -58424.22   0.40154112 0.00023940567 
  200500       200500    467.19211   -58460.663     29.24483   -58431.418   0.60941091 0.00023940567 
  201000       201000    427.86889   -58457.513    26.783314    -58430.73   -1.0396087 0.00023940567 
  201500       201500    632.29661   -58456.028    39.579878   -58416.448    6.9715529 0.00023940567 
  202000       202000    639.43508    -58451.45    40.026725   -58411.423    5.5763987 0.00023940567 
  202500       202500    813.42158   -58456.997     50.91776   -58406.079   -1.0535509 0.00023940567 
  203000       203000    771.70901   -58458.317    48.306677    -58410.01   -1.7843314 0.00023940567 
  203500       203500    619.77993   -58458.489    38.796371   -58419.693   0.68472988 0.00023940567 
  204000       204000    717.49923   -58461.097    44.913307   -58416.184   -1.6542851 0.00023940567 
  204500       204500    694.90334   -58452.219    43.498872   -58408.721   -2.8743299 0.00023940567 
  205000       205000    782.57496   -58446.865    48.986854   -58397.878    3.0879256 0.00023940567 
  205500       205500    520.34585   -58441.152    32.572095    -58408.58    3.9944222 0.00023940567 
  206000       206000    683.13509   -58457.637    42.762215   -58414.875   -2.8115107 0.00023940567 
  206500       206500    517.60795   -58450.615     32.40071   -58418.215  -0.73494914 0.00023940567 
  207000       207000    490.23287    -58451.11    30.687113   -58420.423   -5.8787396 0.00023940567 
  207500       207500    666.43708   -58460.338    41.716969   -58418.621    2.4404095 0.00023940567 
  208000       208000     607.1953   -58455.063    38.008611   -58417.055    4.2914363 0.00023940567 
  208500       208500    595.38876   -58454.646    37.269556   -58417.376    4.4064743 0.00023940567 
  209000       209000    458.14384    -58452.51    28.678435   -58423.832    5.7133497 0.00023940567 
  209500       209500    520.68445   -58454.966    32.593291   -58422.373    2.3667606 0.00023940567 
  210000       210000    422.73454   -58457.743    26.461919   -58431.281    3.2858535 0.00023940567 
  210500       210500    439.94529   -58461.049     27.53926   -58433.509   0.21432664 0.00023940567 
  211000       211000    537.93396    -58453.39    33.673058   -58419.717    5.3205325 0.00023940567 
  211500       211500    595.94138    -58455.05    37.304149   -58417.745   -1.0096656 0.00023940567 
  212000       212000    730.27515    -58454.22    45.713041   -58408.507    1.5771373 0.00023940567 
  212500       212500    698.24405   -58459.232     43.70799   -58415.524   0.35244025 0.00023940567 
  213000       213000    612.36211   -58454.118    38.332038   -58415.786  -0.15757671 0.00023940567 
  213500       213500    682.31524   -58453.612    42.710895   -58410.901    3.8234955 0.00023940567 
  214000       214000    591.22453   -58456.822    37.008889   -58419.813   -4.6154044 0.00023940567 
  214500       214500    510.81156   -58459.698    31.975277   -58427.723    3.9226089 0.00023940567 
  215000       215000    552.01625    -58454.19    34.554567   -58419.635  -0.71743748 0.00023940567 
  215500       215500    642.78574   -58447.953    40.236466   -58407.716    2.4746916 0.00023940567 
  216000       216000    552.80592   -58450.182    34.603998   -58415.578   -3.7236727 0.00023940567 
  216500       216500    614.09038   -58455.805    38.440223   -58417.365   -2.1467501 0.00023940567 
  217000       217000    512.62755   -58456.019    32.088953    -58423.93   -3.0165082 0.00023940567 
  217500       217500    475.83341   -58458.516    29.785749    -58428.73    2.5536866 0.00023940567 
  218000       218000    538.83144   -58457.976    33.729238   -58424.247    4.5327617 0.00023940567 
  218500       218500    555.19749   -58454.749    34.753703   -58419.996   0.18634124 0.00023940567 
  219000       219000    619.58299   -58459.406    38.784043   -58420.621    0.1766853 0.00023940567 
  219500       219500     505.7575   -58457.957    31.658908   -58426.298    1.2224321 0.00023940567 
  220000       220000    598.48887   -58456.157    37.463614   -58418.694   -5.0118845 0.00023940567 
  220500       220500    743.32575   -58454.557     46.52997   -58408.027  -0.57617183 0.00023940567 
  221000       221000    713.99871   -58461.378    44.694185   -58416.684    3.1770013 0.00023940567 
  221500       221500    670.84759   -58456.048    41.993054   -58414.055   -4.1782559 0.00023940567 
  222000       222000    684.59562   -58453.472     42.85364   -58410.619    9.3440717 0.00023940567 
  222500       222500    645.59758   -58457.305    40.412479   -58416.892   0.23660169 0.00023940567 
  223000       223000    691.10129   -58459.095    43.260875   -58415.834    5.1797697 0.00023940567 
  223500       223500      423.971   -58453.783    26.539317   -58427.244   -2.7030821 0.00023940567 
  224000       224000    424.73752   -58458.214    26.587299   -58431.627   -5.1389602 0.00023940567 
  224500       224500    526.16693   -58459.813    32.936477   -58426.877   0.57455139 0.00023940567 
  225000       225000    482.05717   -58456.241    30.175338   -58426.065   -2.4821772 0.00023940567 
  225500       225500    627.28634   -58451.651     39.26625   -58412.384    1.9602746 0.00023940567 
  226000       226000    613.15295   -58454.915    38.381542   -58416.534    2.8105069 0.00023940567 
  226500       226500    631.58917   -58456.866    39.535594   -58417.331    0.7642001 0.00023940567 
  227000       227000    624.36894    -58455.09     39.08363   -58416.007     1.839275 0.00023940567 
  227500       227500    595.04124   -58453.053    37.247803   -58415.806    3.0252895 0.00023940567 
  228000       228000    653.42799   -58450.179    40.902639   -58409.277   0.88841303 0.00023940567 
  228500       228500    639.38893   -58454.637    40.023836   -58414.613    4.3731801 0.00023940567 
  229000       229000    620.14702   -58454.049     38.81935   -58415.229    1.5928971 0.00023940567 
  229500       229500     639.4874   -58456.006        40.03   -58415.976   -1.6294059 0.00023940567 
  230000       230000     642.1424   -58461.849    40.196195   -58421.652    1.0951553 0.00023940567 
  230500       230500    496.61633   -58458.011    31.086698   -58426.925   -1.7982004 0.00023940567 
  231000       231000    441.47018   -58455.713    27.634714   -58428.078   -5.1821694 0.00023940567 
  231500       231500    424.34097   -58456.942    26.562476   -58430.379    1.8931532 0.00023940567 
  232000       232000    477.97388   -58456.637    29.919736   -58426.717     2.042079 0.00023940567 
  232500       232500    496.31382   -58455.533    31.067762   -58424.465    2.4590777 0.00023940567 
  233000       233000    562.53752   -58456.322    35.213167   -58421.109   0.84202993 0.00023940567 
  233500       233500    505.19389    -58458.48    31.623627   -58426.856   -0.1765297 0.00023940567 
  234000       234000    549.40861   -58453.235    34.391337   -58418.844   0.62997042 0.00023940567 
  234500       234500    566.57182   -58458.504    35.465702   -58423.039   0.44007305 0.00023940567 
  235000       235000    564.76797   -58446.547    35.352787   -58411.195     2.101164 0.00023940567 
  235500       235500    823.49808    -58454.71    51.548518   -58403.161   -1.4439058 0.00023940567 
  236000       236000    779.32355   -58449.381    48.783325   -58400.598    3.7827427 0.00023940567 
  236500       236500    766.33894   -58454.484    47.970527   -58406.513     2.305477 0.00023940567 
  237000       237000    636.68363   -58450.217    39.854492   -58410.362  0.074245125 0.00023940567 
  237500       237500    936.05821   -58460.485    58.594446    -58401.89    7.2990481 0.00023940567 
  238000       238000    696.70518   -58445.488    43.611662   -58401.876    -10.69969 0.00023940567 
  238500       238500    686.23791   -58450.467    42.956442    -58407.51   -12.375782 0.00023940567 
  239000       239000    657.52105   -58453.284    41.158852   -58412.125    0.1053584 0.00023940567 
  239500       239500    574.15941   -58453.617    35.940663   -58417.677    32.516098 0.00023940567 
  240000       240000    620.20333   -58460.001    38.822875   -58421.178   -20.110568 0.00023940567 
  240500       240500    667.23022   -58457.674    41.766618   -58415.908     6.309969 0.00023940567 
  241000       241000    577.39813   -58452.895    36.143397   -58416.751    2.0085243 0.00023940567 
  241500       241500    593.16699   -58456.446    37.130481   -58419.315  -0.77506334 0.00023940567 
  242000       242000    514.03222   -58451.327    32.176881    -58419.15  -0.13609336 0.00023940567 
  242500       242500    402.38288   -58460.737    25.187966   -58435.549    -41.22524 0.00023940567 
  243000       243000    478.38575   -58456.263    29.945518   -58426.317     7.940029 0.00023940567 
  243500       243500    562.91084   -58456.792    35.236536   -58421.555    -28.39654 0.00023940567 
  244000       244000    583.30984   -58456.639    36.513453   -58420.126    -12.82629 0.00023940567 
  244500       244500    629.53525   -58452.101    39.407025   -58412.694   -20.127175 0.00023940567 
  245000       245000    757.37549   -58456.024    47.409442   -58408.614   -1.7121369 0.00023940567 
  245500       245500    786.03842   -58452.427    49.203656   -58403.223   -6.9446769 0.00023940567 
  246000       246000    696.58819   -58445.618    43.604338   -58402.013    65.551041 0.00023940567 
  246500       246500      734.238   -58453.433    45.961104   -58407.472    4.4705407 0.00023940567 
  247000       247000    662.13227   -58457.579    41.447501   -58416.132    2.6251915 0.00023940567 
  247500       247500     537.8897    -58456.59    33.670288    -58422.92    8.4849324 0.00023940567 
  248000       248000    439.86773   -58458.991    27.534405   -58431.457   -54.324106 0.00023940567 
  248500       248500    501.92096    -58458.88    31.418752   -58427.461     48.22261 0.00023940567 
  249000       249000    496.74528   -58456.488     31.09477   -58425.393    42.068655 0.00023940567 
  249500       249500    595.36328   -58455.118    37.267962    -58417.85   -21.031169 0.00023940567 
  250000       250000    464.83976   -58451.991    29.097579   -58422.894    6.6047152 0.00023940567 
  250500       250500    611.31397   -58454.971    38.266427   -58416.705   -3.5877987 0.00023940567 
  251000       251000     698.2068     -58453.5    43.705659   -58409.795   -23.664346 0.00023940567 
  251500       251500    788.11654   -58457.435     49.33374   -58408.101   -43.027679 0.00023940567 
  252000       252000    771.26863   -58449.089    48.279111    -58400.81    24.384167 0.00023940567 
  252500       252500    1023.7977   -58459.546    64.086677   -58395.459    46.229442 0.00023940567 
  253000       253000    693.01811   -58451.048    43.380862   -58407.667    22.012375 0.00023940567 
  253500       253500    586.25955   -58449.975    36.698095   -58413.277   -9.7323196 0.00023940567 
  254000       254000    641.33209   -58454.178    40.145472   -58414.033    7.3580683 0.00023940567 
  254500       254500    451.54645    -58450.51    28.265458   -58422.244    55.858487 0.00023940567 
  255000       255000     601.0705    -58451.45    37.625217   -58413.824   -33.125551 0.00023940567 
  255500       255500    617.86828   -58453.739    38.676708   -58415.062    13.438305 0.00023940567 
  256000       256000    602.16567   -58456.972    37.693771   -58419.278    20.516199 0.00023940567 
  256500       256500    713.99569   -58455.372    44.693996   -58410.678    -10.53465 0.00023940567 
  257000       257000    565.25815   -58450.404    35.383471    -58415.02   -8.0956052 0.00023940567 
  257500       257500     572.5669   -58455.997    35.840977   -58420.156   -2.0522209 0.00023940567 
  258000       258000    566.43263    -58454.82     35.45699   -58419.363     5.929494 0.00023940567 
  258500       258500    620.52088   -58453.773    38.842753   -58414.931    7.4576058 0.00023940567 
  259000       259000    723.85522   -58450.438    45.311173   -58405.127    47.513389 0.00023940567 
  259500       259500    693.77921   -58454.142    43.428505   -58410.713   -1.9078779 0.00023940567 
  260000       260000    691.03447   -58457.322    43.256692   -58414.066   -6.7855897 0.00023940567 
  260500       260500    689.67985   -58453.375    43.171897   -58410.203    19.970875 0.00023940567 
  261000       261000     832.9273    -58452.73     52.13876   -58400.591   -7.7853002 0.00023940567 
  261500       261500    739.78278   -58444.518    46.308191    -58398.21    8.1618417 0.00023940567 
  262000       262000    511.35348   -58455.292    32.009199   -58423.283  -0.85641642 0.00023940567 
  262500       262500    646.38909   -58458.875    40.462025   -58418.413    2.1470622 0.00023940567 
  263000       263000    504.83862    -58454.73    31.601389   -58423.129    3.3358127 0.00023940567 
  263500       263500     560.0613   -58462.647    35.058163   -58427.589    2.4825308 0.00023940567 
  264000       264000    647.98317   -58457.032     40.56181    -58416.47    1.0925112 0.00023940567 
  264500       264500    533.05369   -58449.898    33.367568   -58416.531     1.497437 0.00023940567 
  265000       265000    695.10442   -58450.563    43.511459   -58407.052    3.5187378 0.00023940567 
  265500       265500    684.09643   -58453.456    42.822392   -58410.633     7.302634 0.00023940567 
  266000       266000    698.21812   -58449.083    43.706368   -58405.376    2.5961215 0.00023940567 
  266500       266500    654.03592   -58459.265    40.940694   -58418.324    2.5866007 0.00023940567 
  267000       267000    492.88536   -58458.129     30.85315   -58427.276    4.4012259 0.00023940567 
  267500       267500    487.05064   -58453.852    30.487914   -58423.364    1.2802354 0.00023940567 
  268000       268000    580.42073   -58457.213    36.332603   -58420.881    3.2719065 0.00023940567 
  268500       268500    485.46535   -58452.735     30.38868   -58422.347    3.1340472 0.00023940567 
  269000       269000    458.37919   -58458.173    28.693167    -58429.48  -0.56305167 0.00023940567 
  269500       269500    586.90052   -58456.798    36.738219    -58420.06    3.7512828 0.00023940567 
  270000       270000    632.32578   -58460.552    39.581704   -58420.971   0.98769647 0.00023940567 
  270500       270500     583.9429   -58455.538     36.55308   -58418.985    2.7619064 0.00023940567 
  271000       271000     578.5227   -58454.184    36.213792    -58417.97   -1.6842053 0.00023940567 
  271500       271500    603.41148   -58455.445    37.771755   -58417.673   -1.6819301 0.00023940567 
  272000       272000    615.12957   -58452.305    38.505272   -58413.799   -0.9443486 0.00023940567 
  272500       272500    607.40592   -58444.431    38.021795    -58406.41   -1.9591736 0.00023940567 
  273000       273000    950.85066   -58460.604     59.52041   -58401.084    3.6640213 0.00023940567 
  273500       273500    747.70464   -58453.905    46.804075   -58407.101   -2.3715889 0.00023940567 
  274000       274000    636.10841   -58446.164    39.818485   -58406.345   -1.1737277 0.00023940567 
  274500       274500    581.47984   -58450.124      36.3989   -58413.725    2.8305794 0.00023940567 
  275000       275000    655.30832   -58450.636    41.020342   -58409.616    4.6185658 0.00023940567 
  275500       275500    697.01342   -58457.229    43.630957   -58413.598    1.9821075 0.00023940567 
  276000       276000    577.81891   -58455.638    36.169737   -58419.469    1.9099176 0.00023940567 
  276500       276500     526.8967   -58457.029    32.982159   -58424.047    5.2649016 0.00023940567 
  277000       277000    562.69723   -58453.014    35.223165   -58417.791   -1.8970686 0.00023940567 
  277500       277500    652.67753   -58455.297    40.855663   -58414.442    6.9081049 0.00023940567 
  278000       278000    593.32701   -58448.251    37.140497    -58411.11    6.9707916 0.00023940567 
  278500       278500    678.81717   -58451.348    42.491926   -58408.856    1.0821753 0.00023940567 
  279000       279000    717.52258   -58453.606    44.914769   -58408.691    2.6820956 0.00023940567 
  279500       279500    738.39788   -58446.072      46.2215    -58399.85   -5.0128327 0.00023940567 
  280000       280000    489.55181   -58455.696     30.64448   -58425.052    2.3439667 0.00023940567 
  280500       280500    661.18182   -58460.319    41.388006   -58418.931   0.24724075 0.00023940567 
  281000       281000    697.58448   -58452.259    43.666704   -58408.592    4.8163914 0.00023940567 
  281500       281500    889.16947   -58456.011    55.659351   -58400.352    2.0153014 0.00023940567 
  282000       282000      592.748   -58454.485    37.104253    -58417.38    1.3352633 0.00023940567 
  282500       282500    439.45574   -58450.449    27.508616    -58422.94    2.9961015 0.00023940567 
  283000       283000    487.56581   -58450.046    30.520163   -58419.526    5.2124261 0.00023940567 
  283500       283500    528.41787   -58453.019    33.077379   -58419.942   0.45970472 0.00023940567 
  284000       284000      503.667   -58461.203    31.528049   -58429.675   -4.4777424 0.00023940567 
  284500       284500    428.58298   -58459.029    26.828014   -58432.201   0.36277863 0.00023940567 
  285000       285000    540.55383    -58443.74    33.837054   -58409.903    2.6035588 0.00023940567 
  285500       285500    733.26019   -58450.712    45.899896   -58404.813    1.3409402 0.00023940567 
  286000       286000    739.75099   -58443.908    46.306201   -58397.602  -0.72856249 0.00023940567 
  286500       286500    885.88617   -58447.514    55.453826    -58392.06    6.9335352 0.00023940567 
  287000       287000    555.02729   -58452.494     34.74305   -58417.751    1.9935561 0.00023940567 
  287500       287500    475.19251   -58448.585    29.745631   -58418.839   -7.0639962 0.00023940567 
  288000       288000    510.84648   -58454.699    31.977463   -58422.722   -3.7944636 0.00023940567 
  288500       288500    330.20986   -58455.798     20.67015   -58435.128    2.4170541 0.00023940567 
  289000       289000    683.32812   -58455.396    42.774298   -58412.622     10.82311 0.00023940567 
  289500       289500     757.9311   -58455.225    47.444221    -58407.78    5.7953012 0.00023940567 
  290000       290000    693.67374   -58449.133    43.421903   -58405.711    3.2068529 0.00023940567 
  290500       290500    710.57668   -58454.249    44.479976   -58409.769   0.61520038 0.00023940567 
  291000       291000    517.79895   -58449.198    32.412667   -58416.785    6.5618186 0.00023940567 
  291500       291500    598.37825   -58456.854     37.45669   -58419.397     6.119677 0.00023940567 
  292000       292000    570.18905   -58456.881     35.69213   -58421.189    0.2863478 0.00023940567 
  292500       292500    608.99822   -58451.346    38.121469   -58413.224   0.35937855 0.00023940567 
  293000       293000    501.50017   -58445.804    31.392412   -58414.412    7.6084199 0.00023940567 
  293500       293500     468.9028   -58449.929    29.351914   -58420.577    5.9278617 0.00023940567 
  294000       294000    446.27418   -58447.938     27.93543   -58420.002    2.7071684 0.00023940567 
  294500       294500    598.55421   -58450.237    37.467704   -58412.769    37.621526 0.00023940567 
  295000       295000    727.15728   -58451.165    45.517872   -58405.647   -12.400108 0.00023940567 
  295500       295500    683.17252   -58443.003    42.764557   -58400.238   -11.440866 0.00023940567 
  296000       296000    552.32797   -58439.072     34.57408   -58404.498    15.153659 0.00023940567 
  296500       296500    605.91912   -58446.816    37.928726   -58408.888    20.435721 0.00023940567 
  297000       297000     573.1086   -58447.691    35.874885   -58411.816   -33.640941 0.00023940567 
  297500       297500    596.08152   -58452.183    37.312922    -58414.87   -20.894066 0.00023940567 
  298000       298000     632.8839   -58454.402    39.616641   -58414.785   0.52632368 0.00023940567 
  298500       298500     402.9025   -58445.031    25.220492    -58419.81   -2.7424341 0.00023940567 
  299000       299000    613.99019   -58454.266     38.43395   -58415.832   0.37658113 0.00023940567 
  299500       299500    512.06787   -58458.002    32.053918   -58425.948    14.564396 0.00023940567 
  300000       300000    584.55717   -58458.314    36.591532   -58421.723   -44.231998 0.00023940567 
  300500       300500    506.92352   -58448.184    31.731897   -58416.452    2.3477588 0.00023940567 
  301000       301000    572.07421   -58452.559    35.810136   -58416.749    3.1949523 0.00023940567 
  301500       301500    529.59048   -58453.124    33.150781   -58419.973    10.758265 0.00023940567 
  302000       302000    480.63373   -58452.172    30.086235   -58422.086    5.6254238 0.00023940567 
  302500       302500    464.56066   -58453.872    29.080109   -58424.792    7.4470382 0.00023940567 
  303000       303000    548.74724    -58455.57    34.349937    -58421.22    41.988498 0.00023940567 
  303500       303500    612.31146   -58451.928    38.328867   -58413.599   -35.602662 0.00023940567 
  304000       304000    733.62311   -58455.818    45.922614   -58409.896   -38.581345 0.00023940567 
  304500       304500    781.95133   -58446.175    48.947816   -58397.227    72.463996 0.00023940567 
  305000       305000    747.65343   -58449.566     46.80087   -58402.766    27.714849 0.00023940567 
  305500       305500    770.34021   -58450.958    48.220994   -58402.738   0.08341546 0.00023940567 
  306000       306000    572.87644   -58449.957    35.860353   -58414.096    43.593358 0.00023940567 
  306500       306500     634.8298   -58450.527    39.738448   -58410.789    57.972461 0.00023940567 
  307000       307000    508.86213   -58449.683    31.853248    -58417.83   -16.194734 0.00023940567 
  307500       307500    373.25038   -58449.251    23.364358   -58425.886    51.543087 0.00023940567 
  308000       308000    476.13917   -58454.827    29.804889   -58425.022   -7.2581313 0.00023940567 
  308500       308500    640.84225   -58458.613     40.11481   -58418.498    8.5803912 0.00023940567 
  309000       309000     516.9136   -58448.949    32.357246   -58416.591    16.642139 0.00023940567 
  309500       309500    615.66081    -58455.64    38.538526   -58417.101    -9.492536 0.00023940567 
  310000       310000    604.80933   -58447.787    37.859256   -58409.928    12.929787 0.00023940567 
  310500       310500     373.7088   -58450.449    23.393054   -58427.056   0.67887007 0.00023940567 
  311000       311000    503.18238   -58454.227    31.497713   -58422.729   -22.958173 0.00023940567 
  311500       311500    465.46768   -58449.431    29.136886   -58420.294   -55.014777 0.00023940567 
  312000       312000    556.06479   -58450.705    34.807994   -58415.897    40.215547 0.00023940567 
  312500       312500    445.23433   -58445.578    27.870338   -58417.707    14.559731 0.00023940567 
  313000       313000    428.81956     -58446.5    26.842823   -58419.657   -3.4480818 0.00023940567 
  313500       313500    515.56433   -58444.695    32.272786   -58412.422    18.386602 0.00023940567 
  314000       314000    698.60735   -58445.362    43.730732   -58401.632   -28.355236 0.00023940567 
  314500       314500    848.95702   -58444.391    53.142172   -58391.249   -45.292451 0.00023940567 
  315000       315000    766.19541    -58445.05    47.961543   -58397.089    5.9229234 0.00023940567 
  315500       315500    665.26135   -58445.033    41.643372   -58403.389    59.371337 0.00023940567 
  316000       316000    772.13683   -58454.704    48.333458   -58406.371    1.0671939 0.00023940567 
  316500       316500    609.36062   -58433.493    38.144153   -58395.349    42.327716 0.00023940567 
  317000       317000    637.00755   -58445.772    39.874768   -58405.897    17.390429 0.00023940567 
  317500       317500    781.90427   -58456.935     48.94487    -58407.99    6.3807251 0.00023940567 
  318000       318000    651.55947    -58450.37    40.785676   -58409.585   -6.8499684 0.00023940567 
  318500       318500    521.52756   -58454.748    32.646066   -58422.102    14.079414 0.00023940567 
  319000       319000    489.48604   -58454.522    30.640363   -58423.882   -17.171786 0.00023940567 
  319500       319500    516.41415    -58452.41    32.325982   -58420.084   -2.7544567 0.00023940567 
  320000       320000    578.79739   -58452.222    36.230987   -58415.991    4.7254203 0.00023940567 
  320500       320500    623.27303   -58448.716    39.015029   -58409.701   -13.742851 0.00023940567 
  321000       321000    490.96599   -58451.276    30.733003   -58420.543    35.196544 0.00023940567 
  321500       321500     513.2016   -58446.973    32.124886   -58414.848   -8.9345205 0.00023940567 
  322000       322000     542.1597   -58447.497    33.937576   -58413.559   -4.4770945 0.00023940567 
  322500       322500    458.28455   -58449.576    28.687243   -58420.888   -2.6603642 0.00023940567 
  323000       323000    406.39077   -58450.191    25.438847   -58424.752    1.8092192 0.00023940567 
  323500       323500    510.58477   -58449.812     31.96108    -58417.85    1.5227929 0.00023940567 
  324000       324000    522.26616   -58448.323    32.692301    -58415.63   0.62967521 0.00023940567 
  324500       324500    480.58172     -58445.1    30.082979   -58415.017   -4.6720148 0.00023940567 
  325000       325000    577.43411   -58447.373    36.145649   -58411.227  -0.52772599 0.00023940567 
  325500       325500    582.23813   -58450.673    36.446366   -58414.227    1.1041459 0.00023940567 
  326000       326000    505.48435   -58448.125    31.641809   -58416.483   -4.1349614 0.00023940567 
  326500       326500    486.07945   -58451.781    30.427121   -58421.354    -1.190172 0.00023940567 
  327000       327000    368.06026   -58448.475    23.039472   -58425.435  -0.18516591 0.00023940567 
  327500       327500    638.73496   -58442.125    39.982899   -58402.143  -0.66163205 0.00023940567 
  328000       328000    626.58977   -58443.118    39.222647   -58403.895   -4.6334615 0.00023940567 
  328500       328500    638.24378   -58442.516    39.952153   -58402.563   -1.4318372 0.00023940567 
  329000       329000     837.1036   -58444.291    52.400183    -58391.89    1.8813029 0.00023940567 
  329500       329500    733.64628   -58438.185    45.924064   -58392.261    5.0614647 0.00023940567 
  330000       330000    715.76151   -58444.434    44.804531   -58399.629   -1.9689783 0.00023940567 
  330500       330500     690.4306   -58445.052    43.218892   -58401.833    -2.272355 0.00023940567 
  331000       331000     789.8046   -58446.028    49.439407   -58396.589  -0.72340887 0.00023940567 
  331500       331500    634.84516   -58444.343     39.73941   -58404.604   -3.5528918 0.00023940567 
  332000       332000    750.52831   -58452.177    46.980829   -58405.197   0.78822734 0.00023940567 
  332500       332500    718.25924   -58445.689    44.960882   -58400.728    -1.414107 0.00023940567 
  333000       333000    748.36694   -58435.144    46.845533   -58388.298   -1.0489104 0.00023940567 
  333500       333500    609.70793    -58446.89    38.165894   -58408.724    1.1425766 0.00023940567 
  334000       334000    723.05185   -58450.949    45.260884   -58405.689   0.57192846 0.00023940567 
  334500       334500    682.28744    -58448.81    42.709154   -58406.101    7.2506076 0.00023940567 
  335000       335000    631.00587   -58442.162    39.499082   -58402.663    2.3013428 0.00023940567 
  335500       335500    792.03851   -58453.018    49.579243   -58403.438    2.1996331 0.00023940567 
  336000       336000    759.92428   -58445.953    47.568989   -58398.384    2.7210863 0.00023940567 
  336500       336500    643.57602   -58440.878    40.285935   -58400.592    1.1789868 0.00023940567 
  337000       337000    793.41817   -58446.693    49.665606   -58397.027  -0.66150427 0.00023940567 
  337500       337500    847.18806    -58441.88     53.03144   -58388.848    2.7874059 0.00023940567 
  338000       338000     785.1154    -58443.33    49.145877   -58394.184  -0.78049171 0.00023940567 
  338500       338500    623.90403    -58438.34    39.054527   -58399.285  -0.33984142 0.00023940567 
  339000       339000    680.99183   -58442.231    42.628053   -58399.603   -3.5570959 0.00023940567 
  339500       339500    666.47353   -58445.475    41.719251   -58403.756    3.3061743 0.00023940567 
  340000       340000    598.24361   -58437.545    37.448262   -58400.097    2.6273617 0.00023940567 
  340500       340500    663.62973   -58443.433    41.541238   -58401.892   -5.2693938 0.00023940567 
  341000       341000    716.12919    -58444.34    44.827547   -58399.513    3.1826276 0.00023940567 
  341500       341500     587.3305   -58438.132    36.765134   -58401.367   0.44648135 0.00023940567 
  342000       342000    665.99694   -58436.118    41.689418   -58394.428   -4.9225369 0.00023940567 
  342500       342500    777.09842    -58438.21    48.644038   -58389.566   0.35717751 0.00023940567 
  343000       343000    774.90074   -58445.648     48.50647   -58397.142    2.5101933 0.00023940567 
  343500       343500    771.73575   -58452.668    48.308351   -58404.359    4.6804987 0.00023940567 
  344000       344000    702.76882   -58449.236    43.991228   -58405.244    3.5337086 0.00023940567 
  344500       344500    638.99601   -58445.323     39.99924   -58405.324   -1.2065901 0.00023940567 
  345000       345000    669.60934   -58439.495    41.915543    -58397.58    1.8884096 0.00023940567 
  345500       345500    661.13417   -58440.348    41.385023   -58398.963    4.0437392 0.00023940567 
  346000       346000    588.14281    -58442.49    36.815982   -58405.674   -2.0506103 0.00023940567 
  346500       346500    602.39673   -58445.327    37.708235   -58407.618   -1.9090272 0.00023940567 
  347000       347000    908.36419   -58444.833    56.860883   -58387.972    3.2989806 0.00023940567 
  347500       347500    788.41593   -58446.835    49.352481   -58397.482    6.0144952 0.00023940567 
  348000       348000    608.16475   -58441.429    38.069295    -58403.36   -2.5044521 0.00023940567 
  348500       348500    569.61987   -58447.304    35.656501   -58411.648    4.7372225 0.00023940567 
  349000       349000    451.18276   -58454.274    28.242692   -58426.031  -0.42634147 0.00023940567 
  349500       349500    462.55741   -58446.154    28.954711   -58417.199    1.7773016 0.00023940567 
  350000       350000     555.2257   -58447.675    34.755469    -58412.92    2.6289448 0.00023940567 
  350500       350500    480.60177   -58452.312    30.084234   -58422.228    4.3719486 0.00023940567 
  351000       351000    504.60349   -58451.744    31.586671   -58420.157    1.4165831 0.00023940567 
  351500       351500    441.13621   -58442.348    27.613809   -58414.734   -5.2798455 0.00023940567 
  352000       352000    604.06804    -58448.01    37.812854   -58410.198    3.9463465 0.00023940567 
  352500       352500    595.13489   -58447.069    37.253665   -58409.816    3.1561229 0.00023940567 
  353000       353000    810.79826   -58452.358    50.753548   -58401.605   0.74424558 0.00023940567 
  353500       353500    820.66187   -58451.646     51.37098   -58400.275    7.1269813 0.00023940567 
  354000       354000    699.06882   -58439.961    43.759619   -58396.201   -1.7979182 0.00023940567 
  354500       354500    699.19701   -58442.276    43.767643   -58398.508    5.7505018 0.00023940567 
  355000       355000    553.03275    -58435.61    34.618197   -58400.991    3.4953298 0.00023940567 
  355500       355500    669.66434    -58441.22    41.918986   -58399.301  -0.29835163 0.00023940567 
  356000       356000    761.02712   -58444.692    47.638023   -58397.054   -0.9283378 0.00023940567 
  356500       356500    735.27733   -58445.336    46.026163    -58399.31   -1.0627623 0.00023940567 
  357000       357000    689.85297   -58448.073    43.182734    -58404.89  -0.30503244 0.00023940567 
  357500       357500    656.07966   -58449.256    41.068626   -58408.188    2.5933546 0.00023940567 
  358000       358000    499.50314    -58443.56    31.267404   -58412.292    3.4781016 0.00023940567 
  358500       358500    423.28088   -58445.556    26.496118    -58419.06    -1.918031 0.00023940567 
  359000       359000    491.85948   -58451.076    30.788933   -58420.287   0.56660003 0.00023940567 
  359500       359500    571.49284   -58453.005    35.773744   -58417.231   0.60715959 0.00023940567 
  360000       360000    645.93715   -58447.179    40.433735   -58406.745    2.8709453 0.00023940567 
  360500       360500    480.78938   -58442.658    30.095978   -58412.562   -3.4111899 0.00023940567 
  361000       361000    523.49493   -58443.644    32.769218   -58410.875   -3.1036335 0.00023940567 
  361500       361500    552.37019   -58448.881    34.576723   -58414.304    3.4244803 0.00023940567 
  362000       362000    493.66015   -58449.035     30.90165   -58418.134     1.494081 0.00023940567 
  362500       362500    509.02585   -58454.125    31.863497   -58422.262    5.9202014 0.00023940567 
  363000       363000    620.03631   -58444.217     38.81242   -58405.405    6.5354097 0.00023940567 
  363500       363500    692.20345   -58450.412    43.329867   -58407.082   0.92960012 0.00023940567 
  364000       364000    615.44661   -58443.699    38.525118   -58405.174    1.1876036 0.00023940567 
  364500       364500     564.6799   -58442.386    35.347274   -58407.039    4.3467745 0.00023940567 
  365000       365000    546.45387   -58444.261    34.206379   -58410.055    2.3009313 0.00023940567 
  365500       365500    492.08028   -58449.876    30.802755   -58419.074   -1.0878658 0.00023940567 
  366000       366000    594.43899   -58453.312    37.210104   -58416.102    1.1990998 0.00023940567 
  366500       366500    432.82171   -58445.209    27.093345   -58418.116    3.6819311 0.00023940567 
  367000       367000    621.40508   -58448.234    38.898101   -58409.336    2.5264168 0.00023940567 
  367500       367500     698.4794   -58442.027    43.722723   -58398.304    1.5348807 0.00023940567 
  368000       368000    605.26725   -58441.274    37.887921   -58403.386    -5.793935 0.00023940567 
  368500       368500    575.60272   -58441.094     36.03101   -58405.063  -0.10395121 0.00023940567 
  369000       369000    529.09851   -58441.708    33.119986   -58408.589  -0.41757459 0.00023940567 
  369500       369500    438.34123   -58441.781    27.438851   -58414.342    0.3752808 0.00023940567 
  370000       370000    656.09278   -58447.685    41.069447   -58406.616   0.83112633 0.00023940567 
  370500       370500    567.64044   -58447.575    35.532595   -58412.043   0.78979232 0.00023940567 
  371000       371000    683.44024   -58451.639    42.781316   -58408.858    2.6841699 0.00023940567 
  371500       371500    625.41845   -58452.758    39.149326   -58413.608    2.6059456 0.00023940567 
  372000       372000     635.8493   -58450.676    39.802266   -58410.874    8.3424866 0.00023940567 
  372500       372500    560.91864   -58448.809     35.11183   -58413.697   0.99155046 0.00023940567 
  373000       373000    475.53626   -58440.098    29.767149   -58410.331   -1.9504674 0.00023940567 
  373500       373500    582.13426   -58454.314    36.439865   -58417.875    1.0016315 0.00023940567 
  374000       374000    612.61133   -58452.412    38.347638   -58414.065    2.1318013 0.00023940567 
[...]
 1044000      1044000    446.88823   -58426.702    27.973867   -58398.728   -1.3276226 0.00023940567 
 1044500      1044500    576.44978   -58436.429    36.084033   -58400.345    41.664623 0.00023940567 
 1045000      1045000    568.77261   -58434.663    35.603465    -58399.06     41.80259 0.00023940567 
 1045500      1045500    596.42625   -58437.353    37.334501   -58400.019    2.4471762 0.00023940567 
 1046000      1046000    451.54084   -58432.219    28.265107   -58403.954    39.052207 0.00023940567 
 1046500      1046500    493.76676   -58424.404    30.908323   -58393.496   -37.492389 0.00023940567 
 1047000      1047000    693.48339   -58427.668    43.409987   -58384.258    24.724832 0.00023940567 
 1047500      1047500    657.06261   -58431.777    41.130156   -58390.646    -4.291156 0.00023940567 
 1048000      1048000       827.85   -58441.335    51.820936   -58389.514    50.459985 0.00023940567 
 1048500      1048500    807.72389   -58432.253    50.561101   -58381.692    62.035163 0.00023940567 
 1049000      1049000    574.28567   -58414.126    35.948566   -58378.178    15.250126 0.00023940567 
 1049500      1049500     649.4189   -58432.948    40.651682   -58392.296   -38.983645 0.00023940567 
 1050000      1050000    643.87714   -58435.552    40.304785   -58395.247   -49.410112 0.00023940567 
 1050500      1050500    565.57698   -58435.984    35.403428   -58400.581    23.321749 0.00023940567 
 1051000      1051000     526.5247   -58434.154    32.958872   -58401.195    -16.14351 0.00023940567 
 1051500      1051500    590.56107   -58438.115    36.967358   -58401.148   -6.2430937 0.00023940567 
 1052000      1052000     441.6059    -58437.38     27.64321   -58409.736   -3.8759645 0.00023940567 
 1052500      1052500    543.00669   -58438.118    33.990596   -58404.128    9.6133877 0.00023940567 
 1053000      1053000    687.52856   -58434.584    43.037233   -58391.547    9.8148506 0.00023940567 
 1053500      1053500    637.15933   -58427.306     39.88427   -58387.422    1.6754843 0.00023940567 
 1054000      1054000     744.1577   -58428.517    46.582048   -58381.935  -0.94052089 0.00023940567 
 1054500      1054500    830.96497   -58428.385    52.015923    -58376.37    7.0393153 0.00023940567 
 1055000      1055000    519.64569   -58426.048    32.528267    -58393.52   -13.297699 0.00023940567 
 1055500      1055500    629.93676   -58436.876    39.432158   -58397.444    13.178327 0.00023940567 
 1056000      1056000    640.28129    -58438.17    40.079695    -58398.09    36.676542 0.00023940567 
 1056500      1056500    464.24157   -58441.698    29.060135   -58412.638   -60.309989 0.00023940567 
 1057000      1057000    523.19438   -58438.883    32.750404   -58406.133    21.768819 0.00023940567 
 1057500      1057500    492.81967   -58433.521    30.849038   -58402.671    3.8986007 0.00023940567 
 1058000      1058000    584.47598   -58437.101     36.58645   -58400.515    78.939911 0.00023940567 
 1058500      1058500    507.47514   -58438.775    31.766427   -58407.009    22.681012 0.00023940567 
 1059000      1059000    481.24856   -58437.925    30.124722   -58407.801    32.991784 0.00023940567 
 1059500      1059500    456.96413   -58438.154    28.604588    -58409.55    -20.73504 0.00023940567 
 1060000      1060000    502.14874   -58436.283     31.43301    -58404.85    9.4718709 0.00023940567 
 1060500      1060500    563.57575    -58438.25    35.278157   -58402.972    10.755485 0.00023940567 
 1061000      1061000     634.9274   -58437.328    39.744557   -58397.584    18.568571 0.00023940567 
 1061500      1061500    585.27446   -58429.271    36.636432   -58392.634   -42.309659 0.00023940567 
 1062000      1062000    690.15339   -58422.875    43.201539   -58379.673    -64.61231 0.00023940567 
 1062500      1062500    603.51759   -58415.975    37.778397   -58378.197    88.528154 0.00023940567 
 1063000      1063000    488.82618   -58430.004    30.599058   -58399.405   -20.446881 0.00023940567 
 1063500      1063500    533.64752   -58436.479    33.404739   -58403.075    6.4210576 0.00023940567 
 1064000      1064000    694.25417   -58438.907    43.458236   -58395.449   -50.505364 0.00023940567 
 1064500      1064500    498.46014   -58436.635    31.202115   -58405.433   -24.126464 0.00023940567 
 1065000      1065000     487.2552   -58429.093    30.500719   -58398.592    67.971017 0.00023940567 
 1065500      1065500    597.66928   -58432.906    37.412311   -58395.494   -49.484182 0.00023940567 
 1066000      1066000    591.92364   -58430.279     37.05265   -58393.226    12.498007 0.00023940567 
 1066500      1066500     873.7722   -58434.566    54.695528    -58379.87    5.7150024 0.00023940567 
 1067000      1067000    675.64647   -58432.956     42.29345   -58390.662   -1.9109104 0.00023940567 
 1067500      1067500    602.21668   -58431.797    37.696964     -58394.1    19.248961 0.00023940567 
 1068000      1068000    770.35766   -58442.125    48.222087   -58393.903     12.63971 0.00023940567 
 1068500      1068500    391.31472   -58439.274    24.495132   -58414.779    33.591976 0.00023940567 
 1069000      1069000     545.3963   -58444.547    34.140178   -58410.407    8.7738697 0.00023940567 
 1069500      1069500    503.09612   -58438.769    31.492313   -58407.277    17.758309 0.00023940567 
 1070000      1070000      564.579   -58442.351    35.340958    -58407.01   -13.383824 0.00023940567 
 1070500      1070500    586.14351   -58433.763    36.690832   -58397.072   -41.101372 0.00023940567 
 1071000      1071000     724.1778   -58432.501    45.331366   -58387.169   -59.137934 0.00023940567 
 1071500      1071500    664.33582   -58433.501    41.585437   -58391.916   -6.0145955 0.00023940567 
 1072000      1072000    672.88573   -58437.235    42.120636   -58395.114   -13.330239 0.00023940567 
 1072500      1072500    568.90151   -58435.406    35.611534   -58399.794    12.480165 0.00023940567 
 1073000      1073000    505.39359   -58438.089    31.636128   -58406.452    18.126843 0.00023940567 
 1073500      1073500    691.81744   -58443.433    43.305704   -58400.127   -38.680311 0.00023940567 
 1074000      1074000    486.83929   -58429.299    30.474685   -58398.824    47.083987 0.00023940567 
 1074500      1074500    406.81468   -58434.736    25.465383    -58409.27    15.923337 0.00023940567 
 1075000      1075000    527.15309   -58437.392    32.998208   -58404.394    22.517948 0.00023940567 
 1075500      1075500    675.53101   -58431.871    42.286222   -58389.585   -53.965888 0.00023940567 
 1076000      1076000    707.18684   -58424.531    44.267782   -58380.264   0.89316728 0.00023940567 
 1076500      1076500    686.56721   -58435.543    42.977055   -58392.566   -17.047412 0.00023940567 
 1077000      1077000    626.59158   -58432.716     39.22276   -58393.494    38.234289 0.00023940567 
 1077500      1077500    671.43806   -58436.773    42.030016   -58394.743    3.1394677 0.00023940567 
 1078000      1078000    627.89568   -58435.795    39.304393   -58396.491    2.4337394 0.00023940567 
 1078500      1078500    606.05077   -58438.178    37.936967   -58400.241   -7.4958654 0.00023940567 
 1079000      1079000    394.47585   -58436.187    24.693009   -58411.494    21.504252 0.00023940567 
 1079500      1079500    468.83187   -58437.236    29.347474   -58407.888   -73.364826 0.00023940567 
 1080000      1080000    487.14312   -58430.849    30.493703   -58400.355    5.5081324 0.00023940567 
 1080500      1080500    505.49071   -58431.001    31.642208   -58399.359    -20.56407 0.00023940567 
 1081000      1081000    771.65374   -58444.744    48.303218    -58396.44    15.790046 0.00023940567 
 1081500      1081500    529.25028   -58433.014    33.129486   -58399.885   -35.094155 0.00023940567 
 1082000      1082000    613.11329   -58434.509    38.379059    -58396.13    38.819909 0.00023940567 
 1082500      1082500    821.24775   -58431.095    51.407655   -58379.688    58.876251 0.00023940567 
 1083000      1083000     632.9056   -58422.531    39.617999   -58382.913    6.2874223 0.00023940567 
 1083500      1083500    657.40153   -58430.488    41.151371   -58389.337   -25.847479 0.00023940567 
 1084000      1084000    605.16003   -58429.895    37.881209   -58392.014   -2.8127287 0.00023940567 
 1084500      1084500    685.11825   -58439.927    42.886355    -58397.04   -19.007984 0.00023940567 
 1085000      1085000    580.76842   -58443.584    36.354367    -58407.23   -28.833886 0.00023940567 
 1085500      1085500    496.59368   -58429.731     31.08528   -58398.646     66.25073 0.00023940567 
 1086000      1086000    804.48186    -58439.93     50.35816   -58389.572    27.493241 0.00023940567 
 1086500      1086500    729.85201   -58430.912    45.686555   -58385.225     21.24131 0.00023940567 
 1087000      1087000    949.48523   -58431.506    59.434938   -58372.071   -34.938461 0.00023940567 
 1087500      1087500    650.87622    -58434.73    40.742906   -58393.987   0.18306347 0.00023940567 
 1088000      1088000    628.24648   -58432.124    39.326352   -58392.797   -10.724981 0.00023940567 
 1088500      1088500    573.58102   -58435.245    35.904457   -58399.341    76.759913 0.00023940567 
 1089000      1089000    568.46456   -58430.091    35.584182   -58394.506    9.2854788 0.00023940567 
 1089500      1089500    735.96252   -58436.181    46.069054   -58390.112   0.89163292 0.00023940567 
 1090000      1090000    659.33763   -58430.013    41.272565   -58388.741    15.663493 0.00023940567 
 1090500      1090500    627.86678   -58433.596    39.302584   -58394.293   -10.281417 0.00023940567 
 1091000      1091000    529.68306   -58437.521    33.156576   -58404.364    31.627133 0.00023940567 
 1091500      1091500    460.00427    -58437.71    28.794893   -58408.915     14.63415 0.00023940567 
 1092000      1092000    475.78712   -58443.155    29.782852   -58413.372   -51.927184 0.00023940567 
 1092500      1092500    568.23681   -58438.185    35.569926   -58402.615   -4.6068823 0.00023940567 
 1093000      1093000    500.08138   -58428.456      31.3036   -58397.152   -54.504865 0.00023940567 
 1093500      1093500    568.65468   -58429.276    35.596083    -58393.68   -18.918879 0.00023940567 
 1094000      1094000    648.29481   -58428.477    40.581317   -58387.895   -8.4773435 0.00023940567 
 1094500      1094500    666.46673    -58426.37    41.718825   -58384.652    19.120817 0.00023940567 
 1095000      1095000    675.59731   -58429.871    42.290372   -58387.581    -28.82846 0.00023940567 
 1095500      1095500    554.42424   -58424.906      34.7053   -58390.201   -62.336021 0.00023940567 
 1096000      1096000    654.33085   -58424.542    40.959155   -58383.583     60.65437 0.00023940567 
 1096500      1096500    614.63363   -58432.166    38.474228   -58393.692    53.707561 0.00023940567 
 1097000      1097000    434.40358     -58431.5    27.192366   -58404.307    38.779116 0.00023940567 
 1097500      1097500    628.36455   -58439.821    39.333743   -58400.487    30.595732 0.00023940567 
 1098000      1098000    404.44681   -58428.677    25.317161    -58403.36   -51.430149 0.00023940567 
 1098500      1098500    568.58107   -58436.708    35.591475   -58401.117   -39.034388 0.00023940567 
 1099000      1099000    484.08861   -58438.606      30.3025   -58408.303   -85.323955 0.00023940567 
 1099500      1099500    612.05717   -58435.738    38.312949   -58397.425    50.298503 0.00023940567 
 1100000      1100000    605.70515   -58431.984    37.915332   -58394.069    1.8018255 0.00023940567 
 1100500      1100500    677.63029   -58431.269    42.417631   -58388.851   -59.664989 0.00023940567 
 1101000      1101000     683.1545    -58425.73     42.76343   -58382.967    16.799554 0.00023940567 
 1101500      1101500    693.17392   -58431.511    43.390616    -58388.12    -49.32777 0.00023940567 
 1102000      1102000    809.38517   -58434.097    50.665093   -58383.432    48.808065 0.00023940567 
 1102500      1102500    448.46962   -58422.926    28.072858   -58394.853   -40.725677 0.00023940567 
 1103000      1103000    575.60522   -58440.835    36.031166   -58404.804    58.443473 0.00023940567 
 1103500      1103500    657.09771   -58440.091    41.132353   -58398.959    12.295304 0.00023940567 
 1104000      1104000    680.63262   -58435.149    42.605568   -58392.544   -78.744818 0.00023940567 
 1104500      1104500    664.35013   -58428.781    41.586333   -58387.194    62.717139 0.00023940567 
 1105000      1105000     761.4213   -58431.795    47.662697   -58384.132    -12.47298 0.00023940567 
 1105500      1105500    721.29945   -58432.421     45.15119    -58387.27    42.415347 0.00023940567 
 1106000      1106000    581.86275   -58428.403    36.422869    -58391.98   -26.296858 0.00023940567 
 1106500      1106500     648.6303   -58432.312    40.602318    -58391.71   -48.457906 0.00023940567 
 1107000      1107000    687.76452   -58429.955    43.052003   -58386.903     36.77564 0.00023940567 
 1107500      1107500    558.75668    -58426.65    34.976498   -58391.674    10.942148 0.00023940567 
 1108000      1108000    711.51292   -58440.015    44.538582   -58395.476   -10.411076 0.00023940567 
 1108500      1108500    549.38724   -58438.801    34.389999   -58404.411   -64.937715 0.00023940567 
 1109000      1109000    475.71149   -58433.499    29.778117   -58403.721   -7.7199353 0.00023940567 
 1109500      1109500    607.72387   -58431.324    38.041698   -58393.282    32.643605 0.00023940567 
 1110000      1110000     765.7481   -58442.281    47.933542   -58394.347    8.9962188 0.00023940567 
 1110500      1110500    603.71946   -58434.263    37.791034   -58396.472   -15.053243 0.00023940567 
 1111000      1111000    595.21306   -58436.544    37.258558   -58399.285     1.181546 0.00023940567 
 1111500      1111500    807.19767   -58437.751    50.528161   -58387.223   -1.1369065 0.00023940567 
 1112000      1112000     641.0429   -58435.668    40.127369    -58395.54   -3.8541978 0.00023940567 
 1112500      1112500    471.51201   -58429.142    29.515242   -58399.627   -14.318439 0.00023940567 
 1113000      1113000    647.74523   -58438.604    40.546915   -58398.057   -5.3293546 0.00023940567 
 1113500      1113500    556.70612   -58439.737    34.848139   -58404.889    51.652898 0.00023940567 
 1114000      1114000    426.86516   -58438.942    26.720483   -58412.221    21.382233 0.00023940567 
 1114500      1114500    529.17158   -58440.003    33.124559   -58406.878   -7.9742588 0.00023940567 
 1115000      1115000     620.8289   -58436.063    38.862033   -58397.201   -3.1881419 0.00023940567 
 1115500      1115500    536.15259   -58430.151     33.56155   -58396.589   0.84420359 0.00023940567 
 1116000      1116000    652.18506   -58433.345    40.824835    -58392.52   -3.1434509 0.00023940567 
 1116500      1116500    697.39125   -58433.618    43.654608   -58389.964     11.72549 0.00023940567 
 1117000      1117000    518.47752   -58428.991    32.455143   -58396.536   -1.3130919 0.00023940567 
 1117500      1117500    570.17463   -58427.933    35.691228   -58392.242   -17.922872 0.00023940567 
 1118000      1118000    671.98471   -58424.287    42.064234   -58382.223   -4.4955368 0.00023940567 
 1118500      1118500    860.63686   -58435.263    53.873295    -58381.39    6.2948304 0.00023940567 
 1119000      1119000    733.71636   -58435.758    45.928451   -58389.829   -1.8094981 0.00023940567 
 1119500      1119500    617.97955   -58434.247    38.683673   -58395.563    -31.34645 0.00023940567 
 1120000      1120000    678.51807   -58440.626    42.473203   -58398.153  -0.59121024 0.00023940567 
 1120500      1120500    475.78062    -58428.92    29.782445   -58399.137    3.4263637 0.00023940567 
 1121000      1121000     559.7589   -58439.834    35.039234   -58404.795    11.276446 0.00023940567 
 1121500      1121500    621.36025   -58434.453    38.895295   -58395.558   -1.0352788 0.00023940567 
 1122000      1122000    531.90887   -58439.343    33.295906   -58406.047    20.358618 0.00023940567 
 1122500      1122500    507.99621   -58443.148    31.799045   -58411.349    13.509151 0.00023940567 
 1123000      1123000    442.66481   -58435.849    27.709494   -58408.139  -0.86646827 0.00023940567 
 1123500      1123500    617.64493   -58436.069    38.662727   -58397.406    2.9133121 0.00023940567 
 1124000      1124000    666.78222   -58433.789    41.738574    -58392.05    3.2593093 0.00023940567 
 1124500      1124500    566.27407   -58436.537    35.447064    -58401.09    2.2933419 0.00023940567 
 1125000      1125000    553.10052   -58439.603     34.62244   -58404.981    0.2198961 0.00023940567 
 1125500      1125500    426.28486   -58440.478    26.684158   -58413.794   -1.4427641 0.00023940567 
 1126000      1126000    516.07793   -58440.553    32.304936   -58408.249    1.2391459 0.00023940567 
 1126500      1126500     589.6405   -58441.153    36.909733   -58404.243   -4.6778124 0.00023940567 
 1127000      1127000     422.4664   -58440.018    26.445134   -58413.573   -3.5424498 0.00023940567 
 1127500      1127500    426.24603   -58435.113    26.681728   -58408.432  -0.67878797 0.00023940567 
 1128000      1128000    593.57481   -58439.747    37.156009   -58402.591    1.6940412 0.00023940567 
 1128500      1128500    574.93479   -58436.518    35.989199   -58400.529   -1.0676934 0.00023940567 
 1129000      1129000    592.01584   -58434.914    37.058422   -58397.855     5.742076 0.00023940567 
 1129500      1129500    649.63481   -58434.487    40.665197   -58393.821    6.4053342 0.00023940567 
 1130000      1130000    697.36558   -58426.405    43.653001   -58382.752    4.5576362 0.00023940567 
 1130500      1130500    718.38604   -58437.491    44.968819   -58392.523    3.9074104 0.00023940567 
 1131000      1131000    566.21364   -58428.844    35.443282     -58393.4   -3.6135462 0.00023940567 
 1131500      1131500    606.65731   -58427.432    37.974934   -58389.457    -4.569418 0.00023940567 
 1132000      1132000    757.35291   -58427.081    47.408028   -58379.673   0.52416079 0.00023940567 
 1132500      1132500    661.89999   -58426.793    41.432961    -58385.36   -3.7403305 0.00023940567 
 1133000      1133000    650.30855   -58435.824    40.707371   -58395.116    2.6438434 0.00023940567 
 1133500      1133500    594.40863   -58437.412    37.208204   -58400.204   -3.5199493 0.00023940567 
 1134000      1134000    513.69085   -58433.726    32.155512    -58401.57   -1.0956741 0.00023940567 
 1134500      1134500    426.55608   -58431.333    26.701136   -58404.632  -0.64805886 0.00023940567 
 1135000      1135000    621.96655   -58435.537    38.933247   -58396.603    6.4094152 0.00023940567 
 1135500      1135500    574.92694   -58427.629    35.988708   -58391.641    1.2312438 0.00023940567 
 1136000      1136000    610.85725   -58428.146    38.237838   -58389.909    7.0053555 0.00023940567 
 1136500      1136500    742.08612   -58428.848    46.452373   -58382.396   -3.1394259 0.00023940567 
 1137000      1137000    848.96685   -58426.929    53.142787   -58373.786   -0.2098318 0.00023940567 
 1137500      1137500    595.78841    -58433.22    37.294574   -58395.925    5.3615863 0.00023940567 
 1138000      1138000    643.08086   -58436.254     40.25494   -58395.999     1.761485 0.00023940567 
 1138500      1138500    638.58757   -58439.925    39.973673   -58399.951   -0.7377734 0.00023940567 
 1139000      1139000    622.81896   -58437.001    38.986605   -58398.014    3.4760967 0.00023940567 
 1139500      1139500    639.26591   -58441.152    40.016135   -58401.136  -0.30833396 0.00023940567 
 1140000      1140000    602.21091    -58440.01    37.696603   -58402.313    2.9710366 0.00023940567 
 1140500      1140500    503.41169    -58436.36    31.512067   -58404.848   -2.7375033 0.00023940567 
 1141000      1141000    510.51627   -58430.364    31.956793   -58398.407    2.3205042 0.00023940567 
ERROR: Lost atoms: original 22 current 21 (src/thermo.cpp:439)
Last command: run 10000000
