ITEM: TIMESTEP
0
ITEM: NUMBER OF ATOMS
14
ITEM: BOX BOUNDS pp pp pp
-2.2206855000000001e+01 1.8793144999999999e+01
-1.9677098999999998e+01 2.1322901000000002e+01
-1.9241968000000000e+01 2.1758032000000000e+01
ITEM: ATOMS id type x y z fx fy fz
1 1 -7.24824 -1.80761 7.30175 8.6124 -35.7818 -37.7133
2 2 -7.34894 -2.06986 6.19161 -6.07618 6.74132 37.472
3 2 -8.12225 -1.25978 7.60961 -4.4098 9.56374 2.99331
4 2 -7.26529 -2.78346 7.86949 7.71643 23.3048 -12.3428
5 1 -5.9259 -1.01495 7.35243 74.0903 10.7492 23.7878
6 2 -5.1305 -1.417 6.60113 -42.4363 13.1303 27.2188
7 2 -6.03335 0.088184 7.09715 -5.86555 -32.6356 3.19884
8 1 -5.142 -1.08122 8.78466 -3.24436 15.5962 -28.7491
9 2 -4.9055 -2.11495 9.1172 -5.43708 11.0747 -9.20655
10 2 -5.77749 -0.635506 9.56679 3.53144 -5.76305 -4.77993
11 1 -3.79838 -0.234408 8.71516 -10.7565 -9.08191 -28.832
12 2 -4.05378 0.858792 8.70256 9.66548 -20.3793 1.1606
13 2 -3.06117 -0.460461 9.50218 -11.3726 3.35138 0.550025
14 2 -3.26213 -0.493017 7.74888 -14.0177 10.1302 25.2422
ITEM: TIMESTEP
1
ITEM: NUMBER OF ATOMS
14
ITEM: BOX BOUNDS pp pp pp
-2.2206855000000001e+01 1.8793144999999999e+01
-1.9677098999999998e+01 2.1322901000000002e+01
-1.9241968000000000e+01 2.1758032000000000e+01
ITEM: ATOMS id type x y z fx fy fz
1 1 -7.24809 -1.80823 7.3011 8.50185 -29.6118 -33.177
2 2 -7.3502 -2.06846 6.19939 -6.43522 5.38934 31.8636
3 2 -8.12316 -1.2578 7.61023 -3.07169 8.50194 2.57135
4 2 -7.26369 -2.77863 7.86693 7.47597 19.9283 -10.4637
5 1 -5.9246 -1.01476 7.35285 67.4651 8.38582 28.3649
6 2 -5.13931 -1.41427 6.60678 -36.965 10.764 22.5602
7 2 -6.03457 0.0814108 7.09782 -5.90114 -28.2684 2.30494
8 1 -5.14205 -1.08095 8.78415 -2.75149 16.6299 -29.4076
9 2 -4.90663 -2.11265 9.11529 -4.99594 9.49423 -8.67622
10 2 -5.77675 -0.636702 9.5658 2.96854 -5.29922 -4.16314
11 1 -3.79857 -0.234566 8.71466 -12.5425 -10.5328 -25.2272
12 2 -4.05178 0.854562 8.7028 8.82596 -17.4583 1.05618
13 2 -3.06353 -0.459765 9.5023 -10.7394 3.07543 0.985375
14 2 -3.26504 -0.490915 7.75412 -11.835 9.00161 21.4084
