22
 Atoms. Timestep: 0
1 4.70843 3.8466 3.1437
2 3.83683 3.29481 2.79165
1 3.05478 3.21169 3.54637
1 4.17533 2.30453 2.48691
3 3.28799 4.08567 1.75543
4 2.48606 4.96117 2.02121
5 3.74596 3.88827 0.500259
6 4.33343 3.07402 0.390881
2 3.81885 4.86272 -0.558115
7 3.32471 4.52084 -1.46753
2 3.10728 6.14343 -0.356628
1 3.29703 6.52833 0.645343
1 3.50915 6.90074 -1.02974
1 2.04156 6.02466 -0.552181
3 5.25673 4.86452 -1.07522
4 6.16408 4.24931 -0.463807
5 5.4157 5.44275 -2.31012
6 4.66708 6.07906 -2.54418
2 6.67629 5.52641 -3.14906
7 6.63965 4.93582 -4.06446
7 6.92263 6.5347 -3.48187
7 7.48658 5.08201 -2.5711
22
 Atoms. Timestep: 1
1 4.70348 3.85507 3.1417
2 3.83557 3.29489 2.79381
1 3.03613 3.18909 3.52717
1 4.1846 2.30666 2.49436
3 3.28878 4.08212 1.7496
4 2.48813 4.95654 2.01589
5 3.74091 3.88706 0.498154
6 4.32734 3.07028 0.402937
2 3.82058 4.8649 -0.562258
7 3.35093 4.5085 -1.47905
2 3.11021 6.14231 -0.350827
1 3.27866 6.51368 0.66002
1 3.53365 6.8979 -1.01255
1 2.03904 6.0404 -0.524897
3 5.25348 4.86277 -1.06848
4 6.16142 4.25626 -0.461657
5 5.42099 5.44241 -2.31238
6 4.67158 6.0846 -2.52704
2 6.67174 5.52744 -3.14892
7 6.64848 4.95179 -4.07422
7 6.93313 6.53392 -3.47567
7 7.50269 5.11332 -2.57784
