ITEM: TIMESTEP
0
ITEM: NUMBER OF ATOMS
14
ITEM: BOX BOUNDS pp pp pp
-2.2206855000000001e+01 1.8793144999999999e+01
-1.9677098999999998e+01 2.1322901000000002e+01
-1.9241968000000000e+01 2.1758032000000000e+01
ITEM: ATOMS id type x y z fx fy fz
1 1 -1.05804 -0.33566 3.27804 12.8597 15.3742 -5.70054
2 2 -0.55134 -1.20379 3.61602 2.49533 -18.7174 11.8366
3 2 -1.46444 0.199523 4.11389 -9.03146 2.41043 9.58487
4 2 -0.210879 0.275745 2.94499 -10.0171 0.55982 -10.1715
5 1 -2.09963 -0.713318 2.22431 -11.6026 13.4298 -44.5942
6 2 -2.47568 0.117054 1.58152 10.2986 -0.87438 21.8157
7 2 -1.61627 -1.2804 1.42407 3.08525 -6.96211 9.29029
8 1 -3.34596 -1.44027 2.73385 45.3472 -51.335 -11.4466
9 2 -3.80748 -0.728962 3.36556 -25.5081 5.99673 12.5828
10 2 -2.94721 -2.31295 3.3516 -17.1408 26.908 -14.3054
11 1 -4.15683 -2.03121 1.52132 -2.93594 -8.66114 18.9593
12 2 -3.53778 -2.17796 0.621201 -1.29435 -8.44066 10.4018
13 2 -4.70461 -2.98032 1.80884 14.0483 23.7126 -9.45735
14 2 -4.87335 -1.31182 1.17154 -10.604 6.59909 1.20413
ITEM: TIMESTEP
1
ITEM: NUMBER OF ATOMS
14
ITEM: BOX BOUNDS pp pp pp
-2.2206855000000001e+01 1.8793144999999999e+01
-1.9677098999999998e+01 2.1322901000000002e+01
-1.9241968000000000e+01 2.1758032000000000e+01
ITEM: ATOMS id type x y z fx fy fz
1 1 -1.05782 -0.335392 3.27794 12.1759 13.0182 -3.59697
2 2 -0.550822 -1.20767 3.61847 1.31544 -16.1844 10.7593
3 2 -1.46632 0.200023 4.11588 -8.2469 1.71734 8.18366
4 2 -0.212958 0.275861 2.94288 -9.20781 0.94945 -10.0892
5 1 -2.09983 -0.713084 2.22353 -10.1657 11.737 -41.4991
6 2 -2.47354 0.116873 1.58605 9.24057 0.837267 19.8633
7 2 -1.61563 -1.28184 1.426 3.11567 -6.92296 8.64313
8 1 -3.34517 -1.44117 2.73365 40.8432 -44.3955 -11.9051
9 2 -3.81277 -0.727717 3.36818 -23.3613 3.51258 10.2502
10 2 -2.95076 -2.30736 3.34863 -15.0891 22.7258 -11.5408
11 1 -4.15689 -2.03136 1.52165 -2.39554 -4.31095 17.992
12 2 -3.53805 -2.17972 0.62336 -0.856017 -8.38198 9.54916
13 2 -4.70169 -2.97539 1.80688 11.9934 20.181 -8.23674
14 2 -4.87555 -1.31045 1.17179 -9.36168 5.51723 1.62714
