14
 Atoms. Timestep: 0
1 -7.27676 -1.7247 7.78137
2 -8.04259 -1.81193 6.98075
2 -7.6829 -1.20925 8.69009
2 -6.91193 -2.73952 8.17414
1 -6.0866 -0.868913 7.26216
2 -5.64598 -1.35565 6.37688
2 -6.44684 0.111404 6.88019
1 -4.97182 -0.657175 8.31734
2 -4.59946 -1.68233 8.50236
2 -5.42636 -0.303801 9.25978
1 -3.72252 0.191095 7.81109
2 -4.03637 1.21851 7.51137
2 -3.01412 0.080519 8.57115
2 -3.30934 -0.321506 6.87099
14
 Atoms. Timestep: 1
1 -7.27645 -1.72483 7.78181
2 -8.04126 -1.81274 6.9837
2 -7.68302 -1.21119 8.68581
2 -6.91504 -2.73313 8.16986
1 -6.08658 -0.868747 7.26195
2 -5.64674 -1.3553 6.37833
2 -6.44626 0.108881 6.882
1 -4.97163 -0.657308 8.31711
2 -4.59987 -1.67993 8.50349
2 -5.42442 -0.30327 9.25824
1 -3.72346 0.190433 7.81019
2 -4.0339 1.21623 7.51417
2 -3.00855 0.0834792 8.5752
2 -3.31166 -0.317466 6.87766
