ITEM: TIMESTEP
0
ITEM: NUMBER OF ATOMS
22
ITEM: BOX BOUNDS pp pp pp
-5.0000000000000000e+01 5.0000000000000000e+01
-5.0000000000000000e+01 5.0000000000000000e+01
-5.0000000000000000e+01 5.0000000000000000e+01
ITEM: ATOMS id type x y z fx fy fz
1 1 1.16832 4.9115 1.80763 1.42027 28.4321 -12.6604
2 2 1.57735 5.80386 1.33383 -8.1025 -183.316 -16.8023
3 1 1.79993 6.46555 2.17092 29.9385 114.57 127.587
4 1 0.810576 6.16293 0.64737 -47.882 32.4895 -66.8933
5 3 2.85436 5.26002 0.860015 38.4129 32.1564 -41.1225
6 4 3.86168 5.36309 1.55515 -14.4643 -11.7017 4.31449
7 5 2.91437 4.98197 -0.447697 31.5783 -49.0208 -73.2853
8 6 2.10695 5.06495 -1.04877 5.89636 7.62695 34.7875
9 2 4.03521 4.30433 -1.3118 -44.9287 -13.6828 103.079
10 7 3.65358 3.32031 -1.58413 14.2512 41.1775 9.39256
11 2 4.1496 5.08902 -2.53804 -112.923 48.2054 -22.1246
12 1 3.28573 4.95311 -3.1887 11.2151 10.4415 24.7066
13 1 4.50429 6.11635 -2.62105 11.0111 17.5835 24.9752
14 1 4.82291 4.41139 -3.06298 104.605 -77.2561 -82.9527
15 3 5.435 3.99613 -0.626779 -62.7221 27.1758 -27.3519
16 4 5.79068 2.83623 -0.705152 25.0486 -9.51286 10.0666
17 5 6.06658 5.01179 -0.023508 -25.2335 40.8312 2.03288
18 6 5.58993 5.90121 0.019354 36.8784 -66.4196 0.538787
19 2 7.15571 4.71847 0.898313 135.203 145.319 -56.7743
20 7 6.76575 4.21912 1.78526 -38.6566 -42.2763 82.6862
21 7 7.85881 4.01255 0.456239 -26.3369 32.6056 14.1762
22 7 7.6517 5.64526 1.18667 -64.2093 -125.428 -38.3761
ITEM: TIMESTEP
1
ITEM: NUMBER OF ATOMS
22
ITEM: BOX BOUNDS pp pp pp
-5.0000000000000000e+01 5.0000000000000000e+01
-5.0000000000000000e+01 5.0000000000000000e+01
-5.0000000000000000e+01 5.0000000000000000e+01
ITEM: ATOMS id type x y z fx fy fz
1 1 1.14435 4.91375 1.79361 -7.65293 2.46489 2.2705
2 2 1.57649 5.80381 1.33628 -24.3121 -25.1267 39.4587
3 1 1.78904 6.46751 2.17439 -4.46185 8.85661 -5.16246
4 1 0.817173 6.15363 0.636883 14.4875 5.16668 -9.46768
5 3 2.85603 5.25645 0.854746 36.8493 33.2435 -34.7885
6 4 3.86373 5.35844 1.54957 -14.3186 -11.8628 3.81002
7 5 2.91118 4.97886 -0.451721 42.3941 -48.1584 -55.3676
8 6 2.08697 5.08177 -1.02633 -5.74261 6.18872 17.9837
9 2 4.0361 4.30697 -1.31286 -29.0288 16.4229 111.83
10 7 3.68107 3.31776 -1.60186 -3.41717 6.63688 1.37641
11 2 4.15213 5.08842 -2.53376 7.16984 -20.0624 -74.2392
12 1 3.27102 4.94217 -3.15854 -6.94804 11.3012 6.15212
13 1 4.52787 6.10998 -2.59142 0.772854 -3.66099 22.4674
14 1 4.82523 4.40928 -3.05704 12.4534 15.0509 -12.5656
15 3 5.43013 3.99477 -0.620134 -60.2068 36.9106 -28.6233
16 4 5.78852 2.84283 -0.702618 26.3082 -17.1091 10.1844
17 5 6.07164 5.0115 -0.0257674 5.24439 -21.8726 -0.163254
18 6 5.5953 5.89995 0.036383 1.00579 -2.38462 1.45659
19 2 7.15296 4.72269 0.897169 12.0283 1.0093 6.42001
20 7 6.76862 4.22359 1.78671 -3.4339 4.11392 0.792366
21 7 7.8653 4.0217 0.462101 0.456322 3.15221 -4.47112
22 7 7.66268 5.64426 1.17823 0.352844 -0.280717 0.645893
