LAMMPS data file for ACE

22 atoms
21 bonds
36 angles
66 dihedrals

7 atom types
8 bond types
16 angle types
19 dihedral types

-50 50  xlo xhi
-50 50  ylo yhi
-50 50  zlo zhi

Masses

1 1.008
2 12.01
3 12.01
4 16.0
5 14.01
6 1.008
7 1.008

Atoms

1 1 1 0.1123 4.072370 0.801472 0.073939 # 1
2 1 2 -0.36620000000000003 4.558020 1.449630 -0.655538 # 2
3 1 1 0.1123 4.237060 1.265120 -1.680740 # 3
4 1 1 0.1123 5.615620 1.330730 -0.420075 # 4
5 1 3 0.5972000021951126 3.717590 2.680880 -0.205788 # 5
6 1 4 -0.56790000164633436 2.470220 2.541960 -0.027228 # 6
7 1 5 -0.41570000000000001 4.393850 3.828560 -0.032733 # 7
8 1 6 0.27190000000000003 5.379780 3.899970 -0.239972 # 8
9 1 2 0.033699999999999994 3.757710 5.065740 0.283199 # 9
10 1 7 0.082299999999999998 2.817220 5.309170 -0.211079 # 10
11 1 2 -0.1825 3.403030 5.140590 1.837970 # 11
12 1 1 0.060299999999999992 3.002160 4.235920 2.295090 # 12
13 1 1 0.060299999999999992 4.272000 5.441560 2.423120 # 13
14 1 1 0.060299999999999992 2.754940 6.010970 1.940520 # 14
15 1 3 0.59730000054877808 4.687680 6.033020 -0.403388 # 15
16 1 4 -0.56790000164633436 4.421610 6.215330 -1.570420 # 16
17 1 5 -0.41570000000000001 5.635880 6.810150 0.177444 # 17
18 1 6 0.27190000000000003 5.463720 6.702720 1.166850 # 18
19 1 2 -0.14899999999999999 6.794820 7.540730 -0.332595 # 19
20 1 7 0.097600000000000006 6.457100 8.461750 -0.807732 # 20
21 1 7 0.097600000000000006 7.285790 7.874630 0.581492 # 21
22 1 7 0.097600000000000006 7.508280 7.056870 -0.999647 # 22

Bonds

 1 3 2   3
 2 3 2   4
 3 3 1   2
 4 3 11 12
 5 3 11 13
 6 3 11 14
 7 5 9  10
 8 7 7   8
 9 5 19 20
10 5 19 21
11 5 19 22
12 7 17 18
13 1 5   6
14 2 5   7
15 4 2   5
16 1 15 16
17 2 15 17
18 6 9  11
19 4 9  15
20 8 7   9
21 8 17 19

Angles

1 2 5 7 8
2 4 4 2 5
3 5 3 2 4
4 4 3 2 5
5 5 1 2 3
6 5 1 2 4
7 4 1 2 5
8 2 15 17 18
9 5 13 11 14
10 5 12 11 13
11 5 12 11 14
12 9 10 9 11
13 10 10 9 15
14 11 9 11 12
15 11 9 11 13
16 11 9 11 14
17 12 8 7 9
18 13 7 9 10
19 16 21 19 22
20 16 20 19 21
21 16 20 19 22
22 12 18 17 19
23 13 17 19 20
24 13 17 19 21
25 13 17 19 22
26 1 6 5 7
27 3 5 7 9
28 6 2 5 6
29 7 2 5 7
30 1 16 15 17
31 3 15 17 19
32 8 11 9 15
33 6 9 15 16
34 7 9 15 17
35 14 7 9 11
36 15 7 9 15

Dihedrals

1 1 6 5 7 8
2 2 6 5 7 8
3 3 5 7 9 10
4 10 4 2 5 6
5 3 4 2 5 6
6 11 4 2 5 6
7 3 4 2 5 7
8 10 3 2 5 6
9 3 3 2 5 6
10 11 3 2 5 6
11 3 3 2 5 7
12 2 2 5 7 8
13 10 1 2 5 6
14 3 1 2 5 6
15 11 1 2 5 6
16 3 1 2 5 7
17 1 16 15 17 18
18 2 16 15 17 18
19 3 15 17 19 20
20 3 15 17 19 21
21 3 15 17 19 22
22 12 14 11 9 15
23 12 13 11 9 15
24 12 12 11 9 15
25 12 10 9 11 12
26 12 10 9 11 13
27 12 10 9 11 14
28 10 10 9 15 16
29 11 10 9 15 16
30 3 10 9 15 17
31 2 9 15 17 18
32 3 8 7 9 10
33 3 8 7 9 11
34 3 8 7 9 15
35 12 7 9 11 12
36 12 7 9 11 13
37 12 7 9 11 14
38 3 18 17 19 20
39 3 18 17 19 21
40 3 18 17 19 22
41 19 5 9 7 8
42 19 15 19 17 18
43 2 6 5 7 9
44 1 5 7 9 11
45 4 5 7 9 11
46 5 5 7 9 11
47 6 5 7 9 11
48 7 5 7 9 15
49 8 5 7 9 15
50 9 5 7 9 15
51 6 5 7 9 15
52 2 2 5 7 9
53 2 16 15 17 19
54 3 11 9 15 16
55 13 11 9 15 17
56 14 11 9 15 17
57 5 11 9 15 17
58 6 11 9 15 17
59 2 9 15 17 19
60 3 7 9 15 16
61 15 7 9 15 17
62 16 7 9 15 17
63 17 7 9 15 17
64 6 7 9 15 17
65 18 2 7 5 6
66 18 9 17 15 16

Pair Coeffs

1 0.01570000002623629  2.6495327872602221
2 0.10939999991572773  3.3996695084507409
3 0.086000000128358844 3.3996695079448309
4 0.20999999984182244  2.9599219016446874
5 0.16999999991766696  3.2499985240310356
6 0.015700000004219245 1.0690784617205229
7 0.015700000098461422 2.4713530426421655

Bond Coeffs

1 570.0 1.229
2 490.0 1.335
3 340.0 1.090
4 317.0 1.522
5 340.0 1.090
6 310.0 1.526
7 434.0 1.010
8 337.0 1.449

Angle Coeffs

1 80.0 122.90005267195104
2 50.0 120.00005142908158
3 50.0 121.90005224337536
4 50.0 109.50004692903693
5 35.0 109.50004692903693
6 80.0 120.40005160051184
7 70.0 116.60004997192425
8 63.0 111.10004761475803
9 50.0 109.50004692903693
10 50.0 109.50004692903693
11 50.0 109.50004692903693
12 50.0 118.04005047448166
13 50.0 109.50004692903693
14 80.0 109.70004701475206
15 63.0 110.10004718618234
16 35.0 109.50004692903693

Dihedral Coeffs

 1 2.0          1 1  
 2 2.5         -1 2  
 3 0.0          1 2  
 4 2.0          1 2  
 5 0.4          1 3  
 6 0.0          1 4  
 7 0.0          1 1  
 8 0.272        1 2  
 9 0.43         1 3  
10 0.8          1 1  
11 0.08        -1 3  
12 0.155555556  1 3  
13 0.20         1 1  
14 0.20         1 2  
15 0.45        -1 1  
16 1.58        -1 2  
17 0.55        -1 3  
18 10.5        -1 2  
19 1.10        -1 2  
