14
 Atoms. Timestep: 0
1 0.51345 -11.0455 7.57128
2 1.46083 -11.5303 7.34656
2 -0.149838 -10.9093 6.65642
2 -0.063412 -11.5647 8.32086
1 0.788913 -9.67623 8.2349
2 1.11831 -8.83608 7.48574
2 -0.200625 -9.35184 8.64995
1 1.68864 -9.74339 9.53604
2 2.7062 -10.2745 9.21554
2 1.24137 -10.4461 10.2459
1 1.78181 -8.393 10.2423
2 0.756882 -8.09064 10.6066
2 2.37735 -8.41979 11.1889
2 2.23384 -7.54108 9.65729
14
 Atoms. Timestep: 1
1 0.513198 -11.0449 7.57104
2 1.46035 -11.5317 7.34577
2 -0.145141 -10.9108 6.66121
2 -0.0634174 -11.5681 8.32084
1 0.788837 -9.67549 8.23496
2 1.11596 -8.8451 7.49278
2 -0.197196 -9.35205 8.64686
1 1.68937 -9.7442 9.53516
2 2.69542 -10.266 9.22041
2 1.24134 -10.4458 10.2453
1 1.78182 -8.39237 10.2428
2 0.761647 -8.09147 10.6038
2 2.37582 -8.4213 11.185
2 2.23117 -7.54596 9.65839
