ITEM: TIMESTEP
0
ITEM: NUMBER OF ATOMS
22
ITEM: BOX BOUNDS pp pp pp
-5.0000000000000000e+01 5.0000000000000000e+01
-5.0000000000000000e+01 5.0000000000000000e+01
-5.0000000000000000e+01 5.0000000000000000e+01
ITEM: ATOMS id type x y z fx fy fz
1 1 7.13512 3.93673 2.19605 22.2193 25.0305 67.8978
2 2 7.01227 3.41664 1.24604 24.625 -136.556 -110.504
3 1 7.09047 2.33041 1.20031 -10.1017 107.777 21.8788
4 1 7.61091 3.75119 0.398807 15.1253 1.4608 26.2651
5 3 5.75301 3.84475 0.682016 -16.9379 -6.14143 26.517
6 4 5.11581 3.00288 0.089656 -19.3292 9.31138 -15.8426
7 5 5.41558 5.09782 0.99418 -15.863 7.60147 -6.75188
8 6 6.05448 5.63167 1.56595 -25.8939 -25.0201 -24.7306
9 2 4.15299 5.79306 0.580916 106.939 12.6338 -64.9777
10 7 3.51238 6.00527 1.43689 -72.5596 5.35436 111.922
11 2 4.65194 7.21844 0.408667 -69.9234 104.032 -6.85859
12 1 5.36746 7.42553 1.20444 -13.6418 9.27407 12.4353
13 1 5.37668 7.37567 -0.390164 -1.7627 -8.56536 -28.3037
14 1 3.87434 7.98157 0.375931 82.1297 -90.3463 4.19483
15 3 3.16998 5.25248 -0.43847 -43.7943 -45.3914 -25.2299
16 4 2.0202 5.01457 -0.034189 9.94409 9.42932 -16.0604
17 5 3.5883 4.86837 -1.67252 14.7183 18.5815 61.5867
18 6 4.58857 4.97754 -1.58513 26.2432 -7.23475 -28.7712
19 2 3.01478 3.95515 -2.64849 79.5825 17.2187 -73.3628
20 7 3.76495 3.68696 -3.39242 -52.9234 10.9119 63.5865
21 7 2.55215 3.08211 -2.1882 -13.8946 -17.6497 9.99755
22 7 2.35861 4.59148 -3.24231 -24.9011 -1.7124 -4.88871
ITEM: TIMESTEP
1
ITEM: NUMBER OF ATOMS
22
ITEM: BOX BOUNDS pp pp pp
-5.0000000000000000e+01 5.0000000000000000e+01
-5.0000000000000000e+01 5.0000000000000000e+01
-5.0000000000000000e+01 5.0000000000000000e+01
ITEM: ATOMS id type x y z fx fy fz
1 1 7.11546 3.93827 2.19875 15.254 -12.9773 2.10648
2 2 7.01198 3.4174 1.24686 16.3341 0.333905 -32.648
3 1 7.07127 2.33096 1.18184 -0.61845 -0.172696 21.1706
4 1 7.63058 3.73545 0.407654 20.1768 7.76859 16.8459
5 3 5.75371 3.84051 0.677925 -16.4086 -0.385406 26.2835
6 4 5.1178 2.9985 0.0838142 -19.015 9.39003 -16.0469
7 5 5.41169 5.09555 0.99115 -40.7215 -11.5028 -28.6114
8 6 6.0279 5.64172 1.57604 1.8049 -8.24253 -3.2383
9 2 4.15652 5.79616 0.576929 25.7469 32.0389 40.2424
10 7 3.52186 5.99529 1.44044 3.70254 -18.8593 8.24689
11 2 4.65522 7.21881 0.413212 28.459 19.9373 -8.546
12 1 5.34758 7.41434 1.23205 -15.0411 9.56485 7.86452
13 1 5.39761 7.36388 -0.371591 -13.6909 -7.55965 -15.9585
14 1 3.87199 7.97675 0.399957 -2.50877 -4.86733 -2.42498
15 3 3.16544 5.24986 -0.431788 -31.6681 -43.3776 -38.6867
16 4 2.01784 5.02142 -0.0319965 4.93446 7.50327 -13.4087
17 5 3.59395 4.86775 -1.67389 25.5964 22.6519 75.1967
18 6 4.59173 4.98856 -1.57418 6.83267 -11.3 -33.0539
19 2 3.01106 3.95714 -2.64992 10.2429 30.973 -13.1733
20 7 3.76486 3.70247 -3.39493 3.6185 -11.5714 6.98817
21 7 2.56123 3.08083 -2.1832 -4.48039 4.5834 -3.46537
22 7 2.37774 4.61616 -3.2438 -18.5504 -13.9292 4.31681
