22
 Atoms. Timestep: 0
1 7.13512 3.93673 2.19605
2 7.01227 3.41664 1.24604
1 7.09047 2.33041 1.20031
1 7.61091 3.75119 0.398807
3 5.75301 3.84475 0.682016
4 5.11581 3.00288 0.089656
5 5.41558 5.09782 0.99418
6 6.05448 5.63167 1.56595
2 4.15299 5.79306 0.580916
7 3.51238 6.00527 1.43689
2 4.65194 7.21844 0.408667
1 5.36746 7.42553 1.20444
1 5.37668 7.37567 -0.390164
1 3.87434 7.98157 0.375931
3 3.16998 5.25248 -0.43847
4 2.0202 5.01457 -0.034189
5 3.5883 4.86837 -1.67252
6 4.58857 4.97754 -1.58513
2 3.01478 3.95515 -2.64849
7 3.76495 3.68696 -3.39242
7 2.55215 3.08211 -2.1882
7 2.35861 4.59148 -3.24231
22
 Atoms. Timestep: 1
1 7.11546 3.93827 2.19875
2 7.01198 3.4174 1.24686
1 7.07127 2.33096 1.18184
1 7.63058 3.73545 0.407654
3 5.75371 3.84051 0.677925
4 5.1178 2.9985 0.0838142
5 5.41169 5.09555 0.99115
6 6.0279 5.64172 1.57604
2 4.15652 5.79616 0.576929
7 3.52186 5.99529 1.44044
2 4.65522 7.21881 0.413212
1 5.34758 7.41434 1.23205
1 5.39761 7.36388 -0.371591
1 3.87199 7.97675 0.399957
3 3.16544 5.24986 -0.431788
4 2.01784 5.02142 -0.0319965
5 3.59395 4.86775 -1.67389
6 4.59173 4.98856 -1.57418
2 3.01106 3.95714 -2.64992
7 3.76486 3.70247 -3.39493
7 2.56123 3.08083 -2.1832
7 2.37774 4.61616 -3.2438
