ITEM: TIMESTEP
0
ITEM: NUMBER OF ATOMS
14
ITEM: BOX BOUNDS pp pp pp
-2.2206855000000001e+01 1.8793144999999999e+01
-1.9677098999999998e+01 2.1322901000000002e+01
-1.9241968000000000e+01 2.1758032000000000e+01
ITEM: ATOMS id type x y z fx fy fz
1 1 -0.688634 -1.59653 2.48643 -17.117 -9.36219 -27.6422
2 2 -1.40889 -2.41528 2.09572 24.9092 36.8224 14.2941
3 2 -0.594392 -1.75083 3.57315 0.92839 1.35179 -7.77212
4 2 0.302928 -1.82201 2.00038 -20.3818 7.35203 13.1955
5 1 -1.15936 -0.097322 2.16719 16.3221 -9.83331 -7.55759
6 2 -0.416256 0.600322 2.5837 -6.40925 -4.86196 0.80739
7 2 -1.13928 0.162819 1.08729 1.83494 -14.6584 10.6002
8 1 -2.56363 0.25964 2.67638 27.799 10.0705 44.729
9 2 -2.48841 0.415284 3.82556 -6.08625 -11.8168 -47.1525
10 2 -3.13781 -0.641748 2.47684 -16.3953 7.85784 -0.897991
11 1 -3.06257 1.60223 2.06933 -17.5907 -13.7665 1.88867
12 2 -3.31898 1.54778 0.988755 8.24444 -2.82678 13.3444
13 2 -4.03469 1.81437 2.58842 22.2404 7.93712 -8.6875
14 2 -2.27105 2.37314 2.20961 -18.2982 -4.26565 0.850664
ITEM: TIMESTEP
1
ITEM: NUMBER OF ATOMS
14
ITEM: BOX BOUNDS pp pp pp
-2.2206855000000001e+01 1.8793144999999999e+01
-1.9677098999999998e+01 2.1322901000000002e+01
-1.9241968000000000e+01 2.1758032000000000e+01
ITEM: ATOMS id type x y z fx fy fz
1 1 -0.688932 -1.59669 2.48595 -15.874 -3.60704 -24.3046
2 2 -1.40372 -2.40764 2.09869 20.7362 31.9171 11.9566
3 2 -0.594199 -1.75055 3.57153 0.896926 1.21165 -7.00603
4 2 0.298698 -1.82049 2.00312 -17.3642 6.54687 11.5552
5 1 -1.15908 -0.0974934 2.16706 15.3854 -11.1475 -5.88312
6 2 -0.417586 0.599313 2.58387 -5.61117 -4.22972 1.03721
7 2 -1.1389 0.159777 1.08949 1.82522 -13.9429 8.74368
8 1 -2.56315 0.259816 2.67716 26.2753 8.63485 36.923
9 2 -2.48968 0.412832 3.81577 -5.51621 -10.734 -39.8326
10 2 -3.14122 -0.640117 2.47666 -15.6115 8.23741 -0.705126
11 1 -3.06288 1.60199 2.06936 -15.3778 -15.1041 2.55414
12 2 -3.31727 1.5472 0.991524 7.63112 -2.92142 11.3267
13 2 -4.03008 1.81602 2.58661 19.3217 8.21956 -7.34292
14 2 -2.27485 2.37225 2.20978 -16.717 -3.08076 0.977895
