14
 Atoms. Timestep: 0
1 -6.37871 -1.91767 2.26368
2 -6.52995 -2.65491 3.03764
2 -5.95425 -2.46937 1.37118
2 -7.41497 -1.50025 1.93105
1 -5.44515 -0.840188 2.77906
2 -4.85512 -0.513082 1.92754
2 -6.00832 0.081087 2.96971
1 -4.46381 -1.30547 3.85191
2 -3.84079 -2.1319 3.36657
2 -5.03821 -1.87755 4.63308
1 -3.52993 -0.189289 4.40407
2 -4.15069 0.44803 5.06954
2 -2.70519 -0.594992 5.0028
2 -3.28569 0.489012 3.57435
14
 Atoms. Timestep: 1
1 -6.37937 -1.91774 2.26299
2 -6.53126 -2.65597 3.0385
2 -5.95581 -2.46632 1.37598
2 -7.40545 -1.50364 1.93439
1 -5.44512 -0.839784 2.77868
2 -4.85449 -0.513332 1.92708
2 -6.00796 0.0796816 2.9728
1 -4.4636 -1.30631 3.85194
2 -3.84384 -2.1259 3.36985
2 -5.03505 -1.87334 4.63134
1 -3.53068 -0.18921 4.40412
2 -4.14838 0.4462 5.06854
2 -2.70461 -0.593826 5.00105
2 -3.28243 0.487603 3.57581
