22
 Atoms. Timestep: 0
1 2.16879 3.14646 -1.12059
2 2.71663 3.04084 -2.05697
1 2.13132 3.32806 -2.93048
1 3.03906 1.99986 -2.07922
3 3.71487 4.14635 -1.7192
4 3.35712 5.22865 -1.98254
5 4.80878 3.80849 -1.16375
6 5.08898 2.84702 -1.29475
2 5.64484 4.57438 -0.22096
7 6.49505 3.98749 0.126618
2 6.43564 5.7927 -0.835088
1 6.55489 5.64659 -1.90865
1 5.77607 6.66015 -0.810904
1 7.41814 5.85796 -0.367618
3 4.98754 4.94314 1.12477
4 5.67472 5.02989 2.15025
5 3.74566 5.3536 1.23593
6 3.18681 5.30223 0.396201
2 3.00063 5.42013 2.44294
7 1.94765 5.61407 2.23867
7 3.20996 4.49255 2.97573
7 3.3745 6.11938 3.19085
22
 Atoms. Timestep: 1
1 2.14067 3.14035 -1.13432
2 2.71556 3.04297 -2.05525
1 2.12587 3.29988 -2.93524
1 3.05213 2.00645 -2.07629
3 3.71504 4.14124 -1.72445
4 3.35933 5.22499 -1.9881
5 4.80559 3.80742 -1.16617
6 5.0732 2.84039 -1.28165
2 5.6482 4.57693 -0.223084
7 6.50331 3.98279 0.0992019
2 6.43915 5.78983 -0.829603
1 6.54146 5.62943 -1.90287
1 5.7899 6.66417 -0.783679
1 7.40864 5.87522 -0.338797
3 4.9843 4.9419 1.13252
4 5.67232 5.03639 2.15247
5 3.75117 5.35253 1.23362
6 3.17882 5.31561 0.402256
2 2.99692 5.42259 2.44509
7 1.94995 5.62788 2.22193
7 3.21803 4.49681 2.97626
7 3.39175 6.13232 3.17207
