ITEM: TIMESTEP
0
ITEM: NUMBER OF ATOMS
14
ITEM: BOX BOUNDS pp pp pp
-2.2206855000000001e+01 1.8793144999999999e+01
-1.9677098999999998e+01 2.1322901000000002e+01
-1.9241968000000000e+01 2.1758032000000000e+01
ITEM: ATOMS id type x y z fx fy fz
1 1 0.345428 -10.9595 7.45216 34.394 35.8056 -74.9786
2 2 1.2331 -11.6359 7.18563 -30.1594 21.317 12.8197
3 2 -0.174522 -10.6856 6.44614 25.222 -11.2151 42.9031
4 2 -0.386849 -11.4775 7.96396 -21.9987 -22.2081 25.0756
5 1 0.785248 -9.63211 8.18129 -9.20428 -39.0475 28.7527
6 2 1.42773 -9.0289 7.55802 5.35162 2.15098 -5.78823
7 2 -0.113635 -9.03862 8.38179 2.95909 -0.397484 -3.03879
8 1 1.47678 -9.95778 9.57474 0.219594 -21.8857 -52.1998
9 2 2.42005 -10.5674 9.29781 -32.7096 25.4321 20.5206
10 2 0.772281 -10.5755 10.166 12.8778 3.60381 -2.92263
11 1 1.73087 -8.63467 10.2659 22.2046 50.8643 -25.5423
12 2 0.834646 -8.17334 10.6971 1.84345 -10.9846 5.18214
13 2 2.54485 -8.70367 11.0234 -12.5736 2.96773 -10.1725
14 2 1.97609 -7.83356 9.45308 1.57338 -36.403 39.3889
ITEM: TIMESTEP
1
ITEM: NUMBER OF ATOMS
14
ITEM: BOX BOUNDS pp pp pp
-2.2206855000000001e+01 1.8793144999999999e+01
-1.9677098999999998e+01 2.1322901000000002e+01
-1.9241968000000000e+01 2.1758032000000000e+01
ITEM: ATOMS id type x y z fx fy fz
1 1 0.346028 -10.9589 7.45085 28.706 33.5155 -63.0216
2 2 1.22684 -11.6315 7.18829 -25.6323 18.1068 11.2828
3 2 -0.169287 -10.6879 6.45504 21.7613 -9.37268 36.0699
4 2 -0.391415 -11.4821 7.96917 -17.5704 -18.8862 21.6726
5 1 0.785088 -9.63279 8.18179 -7.93895 -37.8602 26.7029
6 2 1.42884 -9.02845 7.55682 4.44621 1.30169 -4.76286
7 2 -0.113021 -9.0387 8.38116 2.63441 -0.307893 -2.84938
8 1 1.47679 -9.95817 9.57383 -3.59552 -17.0357 -50.0532
9 2 2.41326 -10.5621 9.30207 -27.4215 21.919 18.6552
10 2 0.774954 -10.5748 10.1654 11.8486 2.80952 -2.24132
11 1 1.73126 -8.63378 10.2654 19.1558 44.3391 -21.7651
12 2 0.835029 -8.17562 10.6982 1.51569 -10.4832 5.13271
13 2 2.54224 -8.70306 11.0213 -10.9113 2.76636 -8.66773
14 2 1.97642 -7.84111 9.46125 3.00188 -30.8121 33.845
