14
 Atoms. Timestep: 0
1 0.345428 -10.9595 7.45216
2 1.2331 -11.6359 7.18563
2 -0.174522 -10.6856 6.44614
2 -0.386849 -11.4775 7.96396
1 0.785248 -9.63211 8.18129
2 1.42773 -9.0289 7.55802
2 -0.113635 -9.03862 8.38179
1 1.47678 -9.95778 9.57474
2 2.42005 -10.5674 9.29781
2 0.772281 -10.5755 10.166
1 1.73087 -8.63467 10.2659
2 0.834646 -8.17334 10.6971
2 2.54485 -8.70367 11.0234
2 1.97609 -7.83356 9.45308
14
 Atoms. Timestep: 1
1 0.346028 -10.9589 7.45085
2 1.22684 -11.6315 7.18829
2 -0.169287 -10.6879 6.45504
2 -0.391415 -11.4821 7.96917
1 0.785088 -9.63279 8.18179
2 1.42884 -9.02845 7.55682
2 -0.113021 -9.0387 8.38116
1 1.47679 -9.95817 9.57383
2 2.41326 -10.5621 9.30207
2 0.774954 -10.5748 10.1654
1 1.73126 -8.63378 10.2654
2 0.835029 -8.17562 10.6982
2 2.54224 -8.70306 11.0213
2 1.97642 -7.84111 9.46125
