ITEM: TIMESTEP
0
ITEM: NUMBER OF ATOMS
22
ITEM: BOX BOUNDS pp pp pp
-5.0000000000000000e+01 5.0000000000000000e+01
-5.0000000000000000e+01 5.0000000000000000e+01
-5.0000000000000000e+01 5.0000000000000000e+01
ITEM: ATOMS id type x y z fx fy fz
1 1 4.2906 4.39892 3.95467 49.8068 -48.23 40.0544
2 2 3.63914 5.07254 3.39795 -8.01978 -49.7025 -82.6233
3 1 4.1018 6.04405 3.22413 51.8201 106.05 -0.661531
4 1 2.69263 5.20469 3.92213 -71.7489 6.11564 30.7237
5 3 3.49277 4.57632 1.9683 -84.1243 -52.305 0.487135
6 4 2.64531 3.72528 1.67803 5.89177 -4.90236 41.7061
7 5 4.00537 5.12427 0.930916 57.3393 56.1628 -20.44
8 6 4.63469 5.90288 1.06439 -11.3243 -17.7509 -2.25256
9 2 3.93479 4.58645 -0.440478 23.9031 -15.6086 45.0798
10 7 3.74884 3.52115 -0.303922 16.6758 32.9709 -24.8655
11 2 2.75113 5.22252 -1.12389 -118.895 -42.8697 82.3385
12 1 2.82969 6.30951 -1.10433 10.9997 55.7103 -5.63829
13 1 2.7948 4.80907 -2.13149 -10.5058 -14.4187 -62.5228
14 1 1.771 5.02282 -0.690808 108.084 8.5269 -38.0624
15 3 5.31876 4.91004 -1.13725 -51.7251 -18.3912 42.7985
16 4 6.22842 5.42479 -0.493084 11.2778 6.74774 -14.7893
17 5 5.34883 4.47974 -2.36791 52.7013 -22.801 -28.8151
18 6 4.62351 3.84392 -2.6675 -43.3248 -11.3014 -0.666385
19 2 6.49931 4.27326 -3.22664 75.6027 38.6183 -36.6186
20 7 6.18687 4.04551 -4.24576 9.91832 11.1273 34.1704
21 7 7.12644 5.16424 -3.19554 -35.8885 -28.8963 -7.89476
22 7 7.28169 3.5662 -2.95089 -38.4639 5.14761 8.49199
ITEM: TIMESTEP
1
ITEM: NUMBER OF ATOMS
22
ITEM: BOX BOUNDS pp pp pp
-5.0000000000000000e+01 5.0000000000000000e+01
-5.0000000000000000e+01 5.0000000000000000e+01
-5.0000000000000000e+01 5.0000000000000000e+01
ITEM: ATOMS id type x y z fx fy fz
1 1 4.27667 4.38526 3.95159 3.56416 4.47109 -1.647
2 2 3.63828 5.07482 3.39926 16.9739 6.47186 -27.4231
3 1 4.09544 6.04424 3.20098 3.42478 3.40465 21.5723
4 1 2.69428 5.18992 3.9319 -1.95986 -1.49572 -9.48799
5 3 3.4923 4.57128 1.96376 -83.2504 -50.0809 5.21902
6 4 2.64763 3.72071 1.67294 5.13886 -7.03782 40.3466
7 5 4.00257 5.12273 0.927681 41.7609 38.4578 -17.4036
8 6 4.61113 5.91444 1.07914 3.97346 -0.426484 -2.62709
9 2 3.93688 4.58906 -0.442548 30.7196 12.7783 43.8244
10 7 3.77684 3.5169 -0.32876 6.74247 1.69983 -16.4459
11 2 2.75356 5.22033 -1.11779 -12.3233 12.2774 -18.6771
12 1 2.81493 6.30796 -1.08046 9.63866 -0.393372 -9.4157
13 1 2.81392 4.79606 -2.12001 -16.4954 11.2974 -6.14168
14 1 1.77403 5.03852 -0.675552 6.22309 -15.8987 5.68462
15 3 5.31408 4.90789 -1.12938 -37.4967 -13.0254 28.0479
16 4 6.22608 5.4316 -0.490875 7.87314 4.77442 -14.1092
17 5 5.35505 4.4785 -2.37063 11.0197 -43.5303 -21.8814
18 6 4.61224 3.8541 -2.65072 -11.4451 12.0985 6.20897
19 2 6.49552 4.27562 -3.22743 47.8037 25.382 -17.3552
20 7 6.19983 4.06107 -4.25439 -2.22531 2.3415 1.39468
21 7 7.13095 5.16063 -3.19426 -10.1588 12.3004 -5.67654
22 7 7.29801 3.5923 -2.9496 -19.5016 -15.8664 15.993
