ITEM: TIMESTEP
0
ITEM: NUMBER OF ATOMS
14
ITEM: BOX BOUNDS pp pp pp
-2.2206855000000001e+01 1.8793144999999999e+01
-1.9677098999999998e+01 2.1322901000000002e+01
-1.9241968000000000e+01 2.1758032000000000e+01
ITEM: ATOMS id type x y z fx fy fz
1 1 -5.59508 -1.45805 6.84793 -12.8279 -21.8148 20.5753
2 2 -5.52561 -2.38369 6.21945 2.37424 18.0781 10.9453
3 2 -4.73127 -0.811313 6.5662 -22.192 -0.155014 -0.877511
4 2 -6.65535 -1.0729 6.65376 39.1372 -0.838381 2.93301
5 1 -5.43968 -1.87484 8.37916 -31.2616 25.5647 7.54033
6 2 -6.01377 -2.80037 8.52186 6.32951 1.51106 -4.52957
7 2 -4.40572 -2.12346 8.64402 -2.25976 3.2514 -2.9742
8 1 -6.10684 -0.853253 9.44769 26.1985 8.73205 -77.7052
9 2 -7.14414 -0.705617 9.03891 17.2017 0.346662 20.3171
10 2 -5.57964 0.157454 9.36431 -15.1065 -31.7264 9.85856
11 1 -6.06069 -1.48996 10.8133 0.983676 -51.3466 20.6499
12 2 -5.06549 -1.85866 11.1491 -9.04851 9.52123 -14.1853
13 2 -6.38048 -0.89244 11.6423 -11.518 13.4517 2.84648
14 2 -6.68687 -2.43171 10.7769 11.9894 25.4243 4.60573
ITEM: TIMESTEP
1
ITEM: NUMBER OF ATOMS
14
ITEM: BOX BOUNDS pp pp pp
-2.2206855000000001e+01 1.8793144999999999e+01
-1.9677098999999998e+01 2.1322901000000002e+01
-1.9241968000000000e+01 2.1758032000000000e+01
ITEM: ATOMS id type x y z fx fy fz
1 1 -5.5953 -1.45843 6.84829 -9.83383 -21.4508 23.0368
2 2 -5.52512 -2.37994 6.22172 2.44705 15.5564 9.2864
3 2 -4.73588 -0.811345 6.56602 -20.3525 0.774179 -1.16296
4 2 -6.64722 -1.07307 6.65437 34.1475 0.513576 2.19209
5 1 -5.44022 -1.8744 8.3793 -30.4463 25.5529 6.67319
6 2 -6.01245 -2.80006 8.52092 5.85389 1.04396 -4.28234
7 2 -4.40619 -2.12279 8.6434 -2.16495 3.27401 -2.86988
8 1 -6.10638 -0.853101 9.44633 26.0813 3.38377 -73.7267
9 2 -7.14057 -0.705545 9.04312 14.3335 0.82855 18.7119
10 2 -5.58278 0.15087 9.36635 -12.6524 -27.0378 9.15278
11 1 -6.06067 -1.49086 10.8136 0.609805 -44.7595 20.0659
12 2 -5.06737 -1.85668 11.1462 -7.03682 8.57509 -13.0759
13 2 -6.38287 -0.889648 11.6429 -10.6676 12.108 1.49989
14 2 -6.68438 -2.42643 10.7778 9.68136 21.6376 4.4989
