ITEM: TIMESTEP
0
ITEM: NUMBER OF ATOMS
14
ITEM: BOX BOUNDS pp pp pp
-2.2206855000000001e+01 1.8793144999999999e+01
-1.9677098999999998e+01 2.1322901000000002e+01
-1.9241968000000000e+01 2.1758032000000000e+01
ITEM: ATOMS id type x y z fx fy fz
1 1 4.79545 -10.0159 3.3914 32.8181 20.8429 -48.8949
2 2 3.95991 -10.7169 3.44037 2.0889 -1.09656 -1.22906
3 2 4.95874 -9.63704 2.30388 -14.9883 -18.3614 44.3917
4 2 4.5417 -9.13175 3.98429 0.167277 -3.00198 -0.355669
5 1 6.1662 -10.625 3.83304 -5.91963 17.7664 3.20764
6 2 6.35126 -11.5583 3.29908 0.855815 -0.766179 2.2364
7 2 7.01098 -9.93758 3.63097 -11.0666 -6.81153 -6.1024
8 1 6.16543 -10.7908 5.34478 -28.6848 10.4457 40.5145
9 2 5.23142 -11.3549 5.61595 20.0994 11.5541 -1.09875
10 2 6.09624 -9.77251 5.8714 -0.0160447 -32.9088 -21.8967
11 1 7.3835 -11.5085 5.94298 27.3437 -17.0345 14.464
12 2 7.33154 -12.6372 5.95712 -3.27514 27.1656 -9.62618
13 2 8.2743 -11.1934 5.35419 -9.30144 -7.80033 11.1968
14 2 7.59667 -11.2531 7.02366 -10.1212 0.00647882 -26.8073
ITEM: TIMESTEP
1
ITEM: NUMBER OF ATOMS
14
ITEM: BOX BOUNDS pp pp pp
-2.2206855000000001e+01 1.8793144999999999e+01
-1.9677098999999998e+01 2.1322901000000002e+01
-1.9241968000000000e+01 2.1758032000000000e+01
ITEM: ATOMS id type x y z fx fy fz
1 1 4.79602 -10.0156 3.39054 31.0383 17.8134 -41.6658
2 2 3.96034 -10.7171 3.44011 2.35841 -0.875107 -1.22379
3 2 4.95563 -9.64085 2.3131 -13.7373 -15.8054 37.2761
4 2 4.54174 -9.13237 3.98422 0.171793 -2.78542 -0.363836
5 1 6.16609 -10.6247 3.83309 -7.0353 16.431 3.48341
6 2 6.35143 -11.5584 3.29954 0.770853 -0.621134 2.29726
7 2 7.00868 -9.93899 3.6297 -9.72283 -5.7723 -6.22481
8 1 6.16493 -10.7906 5.34549 -24.7796 6.99928 36.4643
9 2 5.23559 -11.3525 5.61573 17.111 9.83523 -0.253566
10 2 6.09624 -9.77934 5.86685 -0.37474 -27.7633 -19.0526
11 1 7.38398 -11.5088 5.94323 24.1876 -14.1599 11.5038
12 2 7.33086 -12.6316 5.95513 -3.3049 23.1741 -9.30558
13 2 8.27237 -11.1951 5.35652 -7.48697 -7.08983 9.9597
14 2 7.59457 -11.2531 7.0181 -9.19627 0.619381 -22.8946
