22
 Atoms. Timestep: 0
1 2.1164 4.9149 2.7391
2 2.29662 5.8353 2.18368
1 2.28511 6.64585 2.91236
1 1.69124 6.26159 1.38374
3 3.71297 5.74747 1.65816
4 4.63064 6.40222 2.07383
5 3.75155 4.9305 0.57374
6 2.97252 4.48667 0.108738
2 5.06765 4.50027 0.219542
7 5.73088 5.27807 0.598036
2 5.32987 3.23181 1.05154
1 5.38684 2.39285 0.357995
1 6.08416 3.35191 1.82918
1 4.44803 2.931 1.61719
3 5.14223 4.31515 -1.35178
4 6.22145 4.64288 -1.9254
5 4.03763 3.99381 -2.01121
6 3.29465 3.59514 -1.4552
2 3.82761 3.83425 -3.30787
7 2.81598 4.1511 -3.56146
7 4.63075 4.41932 -3.75594
7 4.06033 2.79407 -3.53583
22
 Atoms. Timestep: 1
1 2.0882 4.91197 2.72427
2 2.29735 5.83641 2.18598
1 2.26821 6.64832 2.91265
1 1.69564 6.24716 1.37522
3 3.71274 5.74283 1.65273
4 4.63299 6.39797 2.06859
5 3.74843 4.92846 0.571334
6 2.9479 4.50277 0.126304
2 5.06916 4.50285 0.216285
7 5.76051 5.26613 0.573409
2 5.3337 3.22999 1.05864
1 5.37414 2.37653 0.381832
1 6.09148 3.3392 1.8345
1 4.44699 2.95256 1.62862
3 5.13971 4.31404 -1.3444
4 6.21845 4.64935 -1.92282
5 4.04221 3.99234 -2.0118
6 3.29943 3.61292 -1.44221
2 3.82387 3.83729 -3.30919
7 2.8207 4.16629 -3.58034
7 4.63315 4.41749 -3.75248
7 4.08571 2.80484 -3.54071
