22
 Atoms. Timestep: 0
1 1.25086 5.19863 -1.74667
2 1.9794 4.77157 -2.43584
1 2.12202 5.7179 -2.95758
1 1.64848 3.87769 -2.96458
3 3.29297 4.66667 -1.55356
4 4.07732 5.56797 -1.6011
5 3.35433 3.60216 -0.637441
6 2.7164 2.87306 -0.923029
2 4.11807 3.57692 0.672678
7 3.41467 3.51677 1.50317
2 4.9267 2.31198 0.750474
1 5.48749 2.3125 -0.184199
1 5.45734 2.33835 1.70222
1 4.12228 1.5768 0.773098
3 4.92973 4.86597 1.00948
4 4.68539 5.50048 2.12476
5 5.9321 5.49278 0.206157
6 5.96245 5.20874 -0.762605
2 6.58311 6.79378 0.582275
7 7.67079 6.72921 0.612124
7 6.36932 7.4983 -0.221496
7 6.25219 7.31981 1.47776
22
 Atoms. Timestep: 1
1 1.22696 5.18891 -1.76065
2 1.97892 4.77414 -2.43193
1 2.10587 5.70122 -2.99095
1 1.66921 3.87042 -2.95679
3 3.29297 4.66129 -1.55765
4 4.0797 5.56369 -1.60696
5 3.35097 3.60105 -0.640981
6 2.69213 2.88238 -0.904689
2 4.12085 3.58033 0.667831
7 3.42221 3.50425 1.50102
2 4.93015 2.31044 0.758506
1 5.48621 2.29682 -0.178887
1 5.46979 2.32649 1.70541
1 4.1109 1.59243 0.795789
3 4.92693 4.86603 1.01753
4 4.68296 5.50642 2.12629
5 5.93675 5.49174 0.206173
6 5.96125 5.21539 -0.764975
2 6.57926 6.79532 0.582163
7 7.66783 6.74148 0.596424
7 6.38014 7.50344 -0.22221
7 6.27541 7.34015 1.476
