ITEM: TIMESTEP
0
ITEM: NUMBER OF ATOMS
14
ITEM: BOX BOUNDS pp pp pp
-2.2206855000000001e+01 1.8793144999999999e+01
-1.9677098999999998e+01 2.1322901000000002e+01
-1.9241968000000000e+01 2.1758032000000000e+01
ITEM: ATOMS id type x y z fx fy fz
1 1 -7.12165 -1.7147 7.97955 -14.4778 7.37239 7.19012
2 2 -8.17991 -1.51065 7.62509 28.7292 -6.29632 6.58266
3 2 -7.12476 -1.49963 9.07443 1.07946 -3.51889 -16.9446
4 2 -6.93313 -2.79431 7.84434 1.88182 9.93823 0.824133
5 1 -6.09096 -0.806272 7.23326 -58.5851 -0.726983 13.3171
6 2 -5.99477 -1.23603 6.26221 9.71682 -4.18153 -15.4465
7 2 -6.72046 0.125599 7.07155 33.5535 -13.8261 6.85033
8 1 -4.74784 -0.666081 7.96627 27.9696 0.444647 0.652263
9 2 -4.22345 -1.66077 8.14692 -21.2007 25.8504 -3.32535
10 2 -4.98432 -0.192513 8.94967 11.7776 -7.76891 -13.6443
11 1 -3.76612 0.216227 7.10175 -29.503 5.08942 41.3795
12 2 -4.2234 1.20924 7.08455 3.8303 -0.581001 -7.85869
13 2 -2.76585 0.37087 7.51651 -1.7286 -7.91395 0.510409
14 2 -3.72595 -0.180996 6.11921 6.95698 -3.88133 -20.087
ITEM: TIMESTEP
1
ITEM: NUMBER OF ATOMS
14
ITEM: BOX BOUNDS pp pp pp
-2.2206855000000001e+01 1.8793144999999999e+01
-1.9677098999999998e+01 2.1322901000000002e+01
-1.9241968000000000e+01 2.1758032000000000e+01
ITEM: ATOMS id type x y z fx fy fz
1 1 -7.12191 -1.71457 7.97967 -10.813 7.17625 6.15481
2 2 -8.17395 -1.51196 7.62645 24.6089 -5.53845 5.30224
3 2 -7.12454 -1.50036 9.07091 0.99543 -3.01011 -14.4517
4 2 -6.93274 -2.79224 7.84451 2.03134 8.74283 0.68757
5 1 -6.09199 -0.806285 7.2335 -54.0054 -4.84596 11.9236
6 2 -5.99275 -1.23689 6.259 9.09587 -3.16326 -13.1337
7 2 -6.7135 0.12273 7.07297 30.5809 -10.3207 6.09564
8 1 -4.74736 -0.666073 7.96628 25.1409 3.09774 -2.07953
9 2 -4.22785 -1.65541 8.14623 -18.8251 21.7529 -2.6586
10 2 -4.98188 -0.194125 8.94684 11.1702 -6.72881 -11.5159
11 1 -3.76664 0.216316 7.10248 -28.6197 3.53753 37.445
12 2 -4.22261 1.20912 7.08292 3.60827 -0.177842 -7.5957
13 2 -2.76621 0.369228 7.51662 -1.60596 -7.71385 0.715794
14 2 -3.72451 -0.181802 6.11504 6.63738 -2.80834 -16.8896
