22
 Atoms. Timestep: 0
1 6.828 6.89089 1.79006
2 5.92891 6.35485 2.09402
1 5.22061 7.18322 2.07896
1 6.0007 5.93083 3.0956
3 5.56396 5.36041 1.12034
4 5.15333 4.31884 1.59559
5 5.49747 5.66927 -0.109208
6 5.53779 6.6502 -0.346383
2 5.02343 4.92128 -1.24356
7 5.20285 5.37193 -2.21968
2 5.96678 3.68568 -1.40745
1 5.86892 2.9108 -0.647135
1 5.68612 3.24586 -2.36447
1 7.01315 3.92559 -1.59628
3 3.49568 4.56667 -1.11571
4 2.85975 4.66434 -2.18797
5 2.98362 4.11844 0.00742608
6 3.62098 3.84298 0.740908
2 1.61484 3.84 0.257152
7 1.47743 2.77101 0.0944143
7 1.149 3.93538 1.23797
7 0.947457 4.22456 -0.514089
22
 Atoms. Timestep: 1
1 6.82014 6.89331 1.7743
2 5.92774 6.35766 2.09804
1 5.19674 7.16513 2.05657
1 6.01721 5.91791 3.09138
3 5.56441 5.35552 1.11676
4 5.15573 4.31409 1.58986
5 5.49397 5.66842 -0.11339
6 5.51875 6.65542 -0.32626
2 5.02527 4.92354 -1.24709
7 5.22353 5.36015 -2.22595
2 5.96962 3.68305 -1.40038
1 5.85311 2.91457 -0.636208
1 5.70233 3.22775 -2.35398
1 7.01302 3.94605 -1.57433
3 3.49241 4.56487 -1.10995
4 2.85722 4.67108 -2.18516
5 2.98937 4.11746 0.00588516
6 3.6167 3.85878 0.753978
2 1.60938 3.84153 0.256946
7 1.48839 2.77334 0.0768959
7 1.1634 3.94181 1.24647
7 0.967391 4.25532 -0.520697
