14
 Atoms. Timestep: 0
1 -0.381364 -0.542767 3.27178
2 -0.470255 -1.3703 4.06252
2 -0.133812 0.414712 3.7761
2 0.588221 -0.571132 2.68566
1 -1.53849 -0.513237 2.29453
2 -1.38325 0.355491 1.59699
2 -1.57034 -1.40664 1.63375
1 -2.88684 -0.516912 3.09434
2 -2.91785 0.309229 3.7774
2 -2.85575 -1.41805 3.79694
1 -4.18932 -0.632797 2.22393
2 -4.14701 -1.53061 1.52977
2 -5.05753 -0.662977 2.92723
2 -4.29289 0.263154 1.53138
14
 Atoms. Timestep: 1
1 -0.38043 -0.542866 3.27202
2 -0.468759 -1.36496 4.05648
2 -0.138207 0.412658 3.77598
2 0.582846 -0.574585 2.68869
1 -1.53894 -0.51313 2.29425
2 -1.38559 0.352415 1.60045
2 -1.56879 -1.40461 1.63594
1 -2.88677 -0.517629 3.09435
2 -2.91859 0.312125 3.77793
2 -2.85637 -1.41252 3.79205
1 -4.18911 -0.632595 2.22362
2 -4.14805 -1.52641 1.53476
2 -5.05552 -0.663625 2.9235
2 -4.29263 0.258418 1.53609
