ITEM: TIMESTEP
0
ITEM: NUMBER OF ATOMS
22
ITEM: BOX BOUNDS pp pp pp
-5.0000000000000000e+01 5.0000000000000000e+01
-5.0000000000000000e+01 5.0000000000000000e+01
-5.0000000000000000e+01 5.0000000000000000e+01
ITEM: ATOMS id type x y z fx fy fz
1 1 5.76128 2.89544 3.42223 -11.7215 -13.8827 48.2978
2 2 5.89147 2.87995 2.34014 106.942 -117.661 -27.7536
3 1 6.05018 1.85523 2.00419 -39.78 124.983 24.9285
4 1 6.84874 3.40108 2.35243 -24.1758 -11.2893 -16.5417
5 3 4.84713 3.75907 1.86697 -27.103 17.5931 -42.9166
6 4 3.97052 4.13948 2.56488 -24.7613 6.78959 42.0266
7 5 4.88842 4.20647 0.639048 -44.6233 74.7901 74.0455
8 6 5.47298 3.67027 0.0138507 86.8495 -65.9463 -88.5997
9 2 4.33109 5.492 0.189085 48.5737 -21.1903 -173.839
10 7 3.52443 5.88561 0.807527 -109.725 29.3309 84.5126
11 2 5.25978 6.72682 0.17795 -15.0024 88.9868 57.6622
12 1 5.53927 6.9135 1.21484 4.04983 -18.2324 -53.82
13 1 6.06595 6.62742 -0.548898 0.47331 -2.19328 10.9891
14 1 4.76331 7.68259 0.0102355 33.2366 -95.08 1.20305
15 3 3.74818 5.38389 -1.34189 -29.5966 71.0402 96.4102
16 4 2.75247 6.06986 -1.65342 22.8689 -14.6976 -3.82427
17 5 4.35464 4.5921 -2.13397 -1.11916 -66.9087 -49.0181
18 6 4.63989 3.78311 -1.6008 24.2216 -4.2809 6.83778
19 2 3.89668 4.16268 -3.47632 144.89 143.49 -57.2976
20 7 3.53082 5.01605 -4.04729 23.2006 -34.7683 28.6897
21 7 4.72204 3.72677 -4.03923 -40.2588 9.23269 24.1694
22 7 2.98516 3.57724 -3.35595 -127.439 -100.106 13.8377
ITEM: TIMESTEP
1
ITEM: NUMBER OF ATOMS
22
ITEM: BOX BOUNDS pp pp pp
-5.0000000000000000e+01 5.0000000000000000e+01
-5.0000000000000000e+01 5.0000000000000000e+01
-5.0000000000000000e+01 5.0000000000000000e+01
ITEM: ATOMS id type x y z fx fy fz
1 1 5.73458 2.88891 3.42086 -3.30166 -14.9428 1.15384
2 2 5.89261 2.88104 2.3424 51.2906 -15.0564 52.5825
3 1 6.02482 1.85935 1.98635 -18.5777 5.02024 -11.4373
4 1 6.86026 3.3827 2.35239 0.534359 4.05442 -15.0679
5 3 4.84766 3.75525 1.86167 -26.0394 20.5908 -38.5503
6 4 3.97243 4.13507 2.55979 -26.188 7.40923 42.1811
7 5 4.8841 4.20521 0.637224 37.6779 2.30312 -16.5799
8 6 5.4698 3.67182 0.0106845 7.07522 6.90838 -2.74623
9 2 4.33361 5.49451 0.183202 -54.96 25.4873 -83.8015
10 7 3.52619 5.88061 0.80539 -5.87264 -20.1009 4.30922
11 2 5.26402 6.72693 0.183619 7.49139 -7.94213 27.107
12 1 5.52307 6.89661 1.2287 19.1026 -8.0243 -2.69653
13 1 6.08734 6.61695 -0.52217 2.30815 -0.115077 7.2375
14 1 4.75081 7.67679 0.0336403 -7.03254 -9.24643 -16.0603
15 3 3.74389 5.3833 -1.33309 -26.7211 68.4557 76.5931
16 4 2.75028 6.07639 -1.65107 25.6146 -17.6463 -0.935013
17 5 4.36006 4.5902 -2.13699 -5.62026 -65.2662 -28.027
18 6 4.64263 3.79475 -1.58246 20.9762 3.25298 -4.50964
19 2 3.8941 4.16687 -3.47747 -3.52838 31.6693 10.6133
20 7 3.54653 5.02208 -4.05705 4.77519 4.96175 3.10844
21 7 4.72564 3.73107 -4.03129 -7.47371 -9.72099 0.36599
22 7 2.98301 3.58149 -3.35355 8.46922 -12.0517 -4.84044
