22
 Atoms. Timestep: 0
1 5.76128 2.89544 3.42223
2 5.89147 2.87995 2.34014
1 6.05018 1.85523 2.00419
1 6.84874 3.40108 2.35243
3 4.84713 3.75907 1.86697
4 3.97052 4.13948 2.56488
5 4.88842 4.20647 0.639048
6 5.47298 3.67027 0.0138507
2 4.33109 5.492 0.189085
7 3.52443 5.88561 0.807527
2 5.25978 6.72682 0.17795
1 5.53927 6.9135 1.21484
1 6.06595 6.62742 -0.548898
1 4.76331 7.68259 0.0102355
3 3.74818 5.38389 -1.34189
4 2.75247 6.06986 -1.65342
5 4.35464 4.5921 -2.13397
6 4.63989 3.78311 -1.6008
2 3.89668 4.16268 -3.47632
7 3.53082 5.01605 -4.04729
7 4.72204 3.72677 -4.03923
7 2.98516 3.57724 -3.35595
22
 Atoms. Timestep: 1
1 5.73458 2.88891 3.42086
2 5.89261 2.88104 2.3424
1 6.02482 1.85935 1.98635
1 6.86026 3.3827 2.35239
3 4.84766 3.75525 1.86167
4 3.97243 4.13507 2.55979
5 4.8841 4.20521 0.637224
6 5.4698 3.67182 0.0106845
2 4.33361 5.49451 0.183202
7 3.52619 5.88061 0.80539
2 5.26402 6.72693 0.183619
1 5.52307 6.89661 1.2287
1 6.08734 6.61695 -0.52217
1 4.75081 7.67679 0.0336403
3 3.74389 5.3833 -1.33309
4 2.75028 6.07639 -1.65107
5 4.36006 4.5902 -2.13699
6 4.64263 3.79475 -1.58246
2 3.8941 4.16687 -3.47747
7 3.54653 5.02208 -4.05705
7 4.72564 3.73107 -4.03129
7 2.98301 3.58149 -3.35355
