14
 Atoms. Timestep: 0
1 -3.81961 -4.4833 8.65348
2 -3.105 -5.25985 8.99469
2 -3.31515 -3.90465 7.83617
2 -4.74698 -4.95147 8.24724
1 -4.12183 -3.4907 9.81278
2 -4.5084 -4.07282 10.7116
2 -3.1365 -3.07408 10.1499
1 -5.2293 -2.5281 9.3122
2 -6.12336 -3.01711 8.84831
2 -4.74766 -1.99407 8.53222
1 -5.7297 -1.52656 10.3252
2 -4.85928 -1.072 10.8412
2 -6.36642 -0.710667 9.9332
2 -6.33056 -1.97242 11.0955
14
 Atoms. Timestep: 1
1 -3.81944 -4.48313 8.65344
2 -3.10719 -5.25856 8.99359
2 -3.31735 -3.90765 7.83867
2 -4.74384 -4.95051 8.24864
1 -4.12197 -3.49137 9.81311
2 -4.50644 -4.06944 10.706
2 -3.14143 -3.0729 10.1483
1 -5.22944 -2.52826 9.31214
2 -6.11938 -3.01682 8.85019
2 -4.74706 -1.99128 8.52874
1 -5.72952 -1.5261 10.3255
2 -4.86162 -1.07242 10.8398
2 -6.36435 -0.712638 9.9323
2 -6.33133 -1.97458 11.0969
