22
 Atoms. Timestep: 0
1 1.67452 2.37643 0.168668
2 1.84111 2.98781 1.05555
1 2.13171 2.46074 1.96432
1 1.06708 3.75052 1.14063
3 3.12945 3.79944 0.756248
4 4.00472 3.68742 1.57502
5 2.97766 4.44665 -0.411993
6 2.08856 4.3465 -0.880584
2 3.88623 5.41886 -1.01797
7 3.40215 6.3914 -0.928882
2 3.97342 5.20587 -2.49426
1 4.55314 5.97089 -3.01076
1 4.32927 4.19728 -2.70455
1 3.03094 5.3413 -3.02481
3 5.19214 5.64255 -0.336997
4 5.23534 6.67005 0.395166
5 6.11285 4.74747 -0.48936
6 5.86082 4.0299 -1.15395
2 7.46354 4.81698 0.0420369
7 8.08032 4.03113 -0.393989
7 7.91752 5.76224 -0.255426
7 7.58387 4.87643 1.12374
22
 Atoms. Timestep: 1
1 1.65189 2.38008 0.172653
2 1.84218 2.98991 1.05583
1 2.11347 2.43123 1.95159
1 1.06553 3.74911 1.1482
3 3.12884 3.79451 0.751563
4 4.00747 3.68323 1.56928
5 2.9741 4.44439 -0.415001
6 2.07229 4.36166 -0.86222
2 3.88819 5.42037 -1.02092
7 3.41587 6.39989 -0.946321
2 3.97603 5.20216 -2.48999
1 4.55301 5.97607 -2.9962
1 4.34874 4.19543 -2.67888
1 3.02062 5.35242 -2.99271
3 5.18786 5.64185 -0.328936
4 5.23317 6.67635 0.397285
5 6.11893 4.74726 -0.490878
6 5.85558 4.02736 -1.14853
2 7.4595 4.81899 0.041793
7 8.08719 4.04859 -0.406078
7 7.92619 5.75914 -0.252175
7 7.60427 4.89889 1.11918
