ITEM: TIMESTEP
0
ITEM: NUMBER OF ATOMS
22
ITEM: BOX BOUNDS pp pp pp
-5.0000000000000000e+01 5.0000000000000000e+01
-5.0000000000000000e+01 5.0000000000000000e+01
-5.0000000000000000e+01 5.0000000000000000e+01
ITEM: ATOMS id type x y z fx fy fz
1 1 1.12491 5.56331 1.30669 -7.3601 -1.89693 62.7418
2 2 1.19907 5.1703 0.29271 -10.4447 -37.5925 -86.1583
3 1 0.639119 5.95075 -0.222513 12.4482 -15.9717 -5.92267
4 1 0.8274 4.18593 0.00815062 3.64644 45.7815 29.6152
5 3 2.66344 5.20985 -0.085129 -45.7961 16.1462 19.4564
6 4 3.22243 6.27863 0.071186 16.2283 1.39608 -3.01551
7 5 3.16688 4.07678 -0.527655 84.9462 -10.1663 -19.1791
8 6 2.55149 3.30485 -0.740994 -24.2305 -16.1275 4.08194
9 2 4.59865 3.84413 -1.0319 -71.1719 -66.4606 -26.7535
10 7 4.6801 2.78311 -1.26792 -4.53145 86.5695 13.4241
11 2 4.58094 4.69046 -2.34631 -158.071 -52.0728 64.8521
12 1 3.66231 4.3622 -2.83259 55.8325 13.0345 1.50556
13 1 4.3137 5.71925 -2.10489 3.85358 37.8282 6.71728
14 1 5.46983 4.70387 -2.97701 109.36 -11.0339 -70.883
15 3 5.6685 4.11204 -0.016441 109.652 -73.8478 -39.1792
16 4 6.72276 3.36529 0.023645 -68.4604 27.2426 -6.03065
17 5 5.63605 5.14257 0.713274 -50.9664 117.718 66.6046
18 6 4.89061 5.8228 0.671869 35.9562 -49.9846 -16.4474
19 2 6.4646 5.3438 1.89557 107.972 25.4475 -38.8172
20 7 6.70452 6.38434 2.11423 -25.9098 -46.6873 -11.3144
21 7 5.91238 4.84753 2.69362 1.1439 -9.54488 27.1684
22 7 7.44979 4.9361 1.66911 -74.0971 20.2223 27.5335
ITEM: TIMESTEP
1
ITEM: NUMBER OF ATOMS
22
ITEM: BOX BOUNDS pp pp pp
-5.0000000000000000e+01 5.0000000000000000e+01
-5.0000000000000000e+01 5.0000000000000000e+01
-5.0000000000000000e+01 5.0000000000000000e+01
ITEM: ATOMS id type x y z fx fy fz
1 1 1.09912 5.55926 1.30831 -0.363792 -21.1877 5.35467
2 2 1.19817 5.17279 0.293955 5.80625 12.1123 -14.039
3 1 0.624596 5.92562 -0.246752 7.61348 -5.6376 -10.228
4 1 0.844691 4.17939 0.0176923 -14.1839 2.28976 17.1832
5 3 2.66364 5.206 -0.0893432 -45.4486 22.4779 22.9049
6 4 3.22488 6.27415 0.0655119 15.8363 1.04943 -2.77022
7 5 3.16449 4.07425 -0.530871 61.9992 -32.3175 -22.6466
8 6 2.52525 3.31674 -0.724925 -0.560309 3.73052 7.68578
9 2 4.59908 3.84586 -1.03522 -73.3984 9.76246 -2.69655
10 7 4.70369 2.78999 -1.28481 -1.08612 4.02982 -3.70309
11 2 4.58269 4.68811 -2.34052 -15.1838 4.35049 20.3849
12 1 3.65686 4.3518 -2.80724 13.2582 0.184938 -25.3463
13 1 4.3358 5.71708 -2.07905 10.968 2.57747 -3.64467
14 1 5.47313 4.71551 -2.96857 0.908436 -14.6781 4.70198
15 3 5.66663 4.10892 -0.0100015 102.909 -67.9638 -43.9002
16 4 6.71938 3.37237 0.0259687 -62.3168 21.376 -4.87511
17 5 5.64072 5.14343 0.711979 -6.64929 76.0111 71.6752
18 6 4.89579 5.82494 0.685373 -11.7008 -8.32268 -21.6248
19 2 6.46138 5.34593 1.89474 17.77 -3.0275 -12.274
20 7 6.71004 6.3879 2.09617 -16.7067 2.95533 0.923675
21 7 5.92458 4.84794 2.70217 13.3918 2.86516 7.44709
22 7 7.45871 4.96533 1.67435 -2.86263 -12.6377 9.48722
