ITEM: TIMESTEP
0
ITEM: NUMBER OF ATOMS
14
ITEM: BOX BOUNDS pp pp pp
-2.2206855000000001e+01 1.8793144999999999e+01
-1.9677098999999998e+01 2.1322901000000002e+01
-1.9241968000000000e+01 2.1758032000000000e+01
ITEM: ATOMS id type x y z fx fy fz
1 1 -4.05365 -3.19501 9.28889 -2.96159 18.4325 -3.54031
2 2 -3.48991 -2.43153 8.65593 -12.0564 -21.0709 25.8076
3 2 -3.91791 -3.08882 10.3784 2.77222 12.6188 -10.2368
4 2 -5.13948 -3.01526 9.1097 16.23 -7.54507 -1.25375
5 1 -3.59123 -4.62046 8.99993 17.6545 -11.624 -68.9936
6 2 -3.50653 -4.71418 7.81767 -4.21381 0.690175 66.9488
7 2 -2.55895 -4.82523 9.40547 -21.5443 11.3754 -9.08814
8 1 -4.56256 -5.68191 9.54649 3.47754 6.82798 59.6552
9 2 -5.27238 -5.99313 8.78374 -2.24303 -2.99117 0.235422
10 2 -5.13348 -5.31914 10.4886 16.598 -4.97153 -45.6854
11 1 -3.75968 -6.8489 10.1888 0.11985 -41.1248 -63.0685
12 2 -3.11579 -6.49473 11.0118 -8.99894 -9.86618 -0.372521
13 2 -4.53279 -7.62938 10.4231 20.5369 15.9131 13.3658
14 2 -3.10809 -7.42036 9.4016 -25.3709 33.3356 36.2261
ITEM: TIMESTEP
1
ITEM: NUMBER OF ATOMS
14
ITEM: BOX BOUNDS pp pp pp
-2.2206855000000001e+01 1.8793144999999999e+01
-1.9677098999999998e+01 2.1322901000000002e+01
-1.9241968000000000e+01 2.1758032000000000e+01
ITEM: ATOMS id type x y z fx fy fz
1 1 -4.0537 -3.19469 9.28883 -2.81442 14.4065 -1.79858
2 2 -3.49241 -2.43591 8.66129 -9.77547 -17.7456 22.8464
3 2 -3.91733 -3.0862 10.3762 2.75816 12.4087 -9.05032
4 2 -5.13612 -3.01682 9.10944 13.8742 -6.97234 -1.61697
5 1 -3.59092 -4.62066 8.99873 13.4088 -9.84444 -59.2116
6 2 -3.50741 -4.71403 7.83157 -3.4575 -0.114548 56.7189
7 2 -2.56342 -4.82287 9.40358 -18.3767 10.591 -7.95988
8 1 -4.5625 -5.68179 9.54753 6.38247 4.52283 52.4272
9 2 -5.27285 -5.99375 8.78378 -1.69029 -2.71381 0.812286
10 2 -5.13004 -5.32017 10.4791 13.2863 -2.88533 -39.6907
11 1 -3.75968 -6.84961 10.1877 -2.39765 -34.7617 -57.0983
12 2 -3.11766 -6.49678 11.0118 -8.514 -9.47082 -0.261873
13 2 -4.52852 -7.62608 10.4259 18.2096 13.5411 13.409
14 2 -3.11335 -7.41344 9.40912 -20.8934 29.0385 30.4744
