ITEM: TIMESTEP
0
ITEM: NUMBER OF ATOMS
22
ITEM: BOX BOUNDS pp pp pp
-5.0000000000000000e+01 5.0000000000000000e+01
-5.0000000000000000e+01 5.0000000000000000e+01
-5.0000000000000000e+01 5.0000000000000000e+01
ITEM: ATOMS id type x y z fx fy fz
1 1 6.94982 6.69582 -2.10865 4.36778 34.1087 10.1523
2 2 7.01123 5.63073 -2.33208 -56.9929 -37.8112 -12.3246
3 1 7.92204 5.1074 -2.04111 37.8549 -4.44947 7.65509
4 1 6.80641 5.45286 -3.38778 3.62045 3.20881 -5.87727
5 3 5.91715 4.87429 -1.58438 28.3521 -14.718 52.8241
6 4 5.52636 3.775 -1.93746 -12.0885 6.58129 -32.0981
7 5 5.78349 5.12344 -0.261524 -8.79923 24.5629 25.2461
8 6 6.39433 5.73601 0.259761 -24.4029 -16.9035 -40.1533
9 2 4.81829 4.38299 0.616924 13.9191 -54.2776 -12.5893
10 7 4.78781 3.35099 0.26743 5.65376 76.2502 34.7935
11 2 5.49205 4.48023 2.05494 -105.197 -35.1563 -3.65569
12 1 6.51744 4.82505 2.1883 93.5304 23.0747 -15.4216
13 1 4.99675 5.24537 2.65273 -15.8472 8.73906 0.805816
14 1 5.39155 3.56208 2.63373 -4.74084 -8.98067 -5.06808
15 3 3.30472 4.89592 0.617382 -16.3411 -106.192 -10.014
16 4 3.05122 6.03786 0.626325 -4.42015 68.4493 5.25586
17 5 2.25484 3.95761 0.595934 81.6842 118.245 39.7964
18 6 2.52893 3.01465 0.359691 18.4482 -81.5344 -13.911
19 2 0.882705 4.26953 0.678277 57.3504 70.5286 -47.8772
20 7 0.377037 4.70087 1.54219 -9.39128 31.2249 66.0461
21 7 0.680442 4.84088 -0.227675 -10.7579 27.0047 -17.7252
22 7 0.38912 3.32941 0.432021 -75.8029 -131.955 -25.8598
ITEM: TIMESTEP
1
ITEM: NUMBER OF ATOMS
22
ITEM: BOX BOUNDS pp pp pp
-5.0000000000000000e+01 5.0000000000000000e+01
-5.0000000000000000e+01 5.0000000000000000e+01
-5.0000000000000000e+01 5.0000000000000000e+01
ITEM: ATOMS id type x y z fx fy fz
1 1 6.92646 6.69924 -2.11794 9.9092 -3.14876 3.21843
2 2 7.00952 5.63321 -2.32955 -28.6267 -27.0658 -4.83073
3 1 7.91279 5.08466 -2.06253 7.06348 18.7627 1.35487
4 1 6.82369 5.43749 -3.38561 1.70783 6.14796 -1.18898
5 3 5.91864 4.8699 -1.58801 26.7221 -13.2873 55.742
6 4 5.52844 3.77058 -1.94351 -11.0949 7.03328 -32.4342
7 5 5.7797 5.12143 -0.264077 -34.4001 1.44396 3.81065
8 6 6.36806 5.74774 0.26665 3.243 9.45187 -20.4993
9 2 4.8202 4.38493 0.61385 15.1167 18.2807 19.0148
10 7 4.81352 3.35572 0.254974 -0.121605 -0.139399 10.5751
11 2 5.49472 4.47818 2.05954 -22.2524 -1.10466 22.2879
12 1 6.51981 4.81673 2.21013 4.70645 -7.59645 -29.5963
13 1 5.01476 5.23716 2.67734 -11.953 1.71744 -10.2392
14 1 5.37117 3.57415 2.65583 -3.48472 -5.7697 -10.883
15 3 3.30066 4.89224 0.624329 -5.7784 -88.3801 -14.1058
16 4 3.04868 6.04548 0.628796 -3.50605 56.0822 5.81006
17 5 2.26149 3.95847 0.594238 87.6536 32.9905 22.2
18 6 2.53047 3.01025 0.373721 -3.45697 -0.404535 5.61692
19 2 0.878601 4.27245 0.677288 -37.0216 -16.5861 -48.4112
20 7 0.385984 4.7206 1.54018 22.6144 0.793333 7.60743
21 7 0.69017 4.84887 -0.228434 -6.8961 11.6955 5.71426
22 7 0.397686 3.32706 0.426177 -10.1444 -0.916689 9.23639
