22
 Atoms. Timestep: 0
1 2.42671 3.20186 -0.842757
2 3.23978 2.48003 -0.765522
1 3.08046 1.50896 -1.23429
1 3.62218 2.42642 0.25379
3 4.41374 3.12949 -1.61292
4 4.66558 2.41933 -2.55907
5 4.93794 4.36577 -1.48687
6 5.44932 4.50866 -2.34604
2 5.18984 5.38034 -0.327399
7 6.27004 5.47593 -0.217307
2 4.97745 6.76349 -0.871827
1 5.49941 7.40062 -0.157881
1 5.4483 6.69201 -1.85228
1 3.94435 7.10124 -0.953884
3 4.51095 5.31188 0.97543
4 4.11717 4.25294 1.3403
5 4.37444 6.4754 1.61102
6 5.04058 7.19346 1.36452
2 3.58323 6.74173 2.73856
7 4.16877 7.37774 3.40244
7 2.72276 7.3162 2.39553
7 3.10965 5.87472 3.19911
22
 Atoms. Timestep: 1
1 2.41178 3.18651 -0.852536
2 3.23907 2.48235 -0.763864
1 3.06543 1.51746 -1.24024
1 3.63402 2.40582 0.249178
3 4.4135 3.12487 -1.61691
4 4.6682 2.41498 -2.56498
5 4.93369 4.36321 -1.48812
6 5.43933 4.52953 -2.34646
2 5.19334 5.38308 -0.331573
7 6.27644 5.45887 -0.23544
2 4.97973 6.76261 -0.86732
1 5.48627 7.39346 -0.136883
1 5.47347 6.68592 -1.83605
1 3.94699 7.10569 -0.929302
3 4.50707 5.31014 0.982522
4 4.11444 4.25953 1.34325
5 4.3801 6.47414 1.60912
6 5.03684 7.20655 1.38029
2 3.5797 6.74528 2.73828
7 4.17651 7.38728 3.38617
7 2.7243 7.32671 2.39429
7 3.12423 5.87534 3.2114
