
# Define name of log file
#log            butane_C_stability.log
# Model system
units           real
atom_style      atomic
newton         on   ## off for Nequip

#read_data Butane.data
read_data       butane_nvt_equil.data  ##but1.data
Reading data file ...
  orthogonal box = (-20.000000 -20.000000 -20.000000) to (20.000000 20.000000 20.000000)
  1 by 1 by 1 MPI processor grid
  reading atoms ...
  14 atoms
  read_data CPU = 0.003 seconds
#group           mobile union all



#boundary        p p p
pair_style      allegro  ##nequip
pair_coeff      * * But_BD_SPC_500K_500Frames.pth C H
mass            1 12
mass            2 1.008

neighbor        2.0 bin
neigh_modify    every 1 delay 0 check yes



# Setup timestep
timestep        1

# Define thermo output
#thermo 1000
thermo          500
thermo_style    custom step time temp pe ke etotal press density #lx ly lz vol density


#Create initial velocity distribution
velocity	all create 500 432567 dist uniform

## Fix commands
fix 5 all plumed plumedfile plumed_but.dat outfile plumed.out # Use plumed to analyze CVs

fix 2 all nvt temp 500 500 100 ## iso 1.0 1.0 1000.0

# Define Dumping
#dump 1 all xyz 1000 water255_minimized.xyz
dump myDump2 all custom 500 forces.dump id type x y z fx fy fz
dump Dumpdcd all dcd 500 but_Boltz_CtC.dcd

restart 1000000 but_BD_dpmd.restart

#run 500
#run 5000000
run 2000000

CITE-CITE-CITE-CITE-CITE-CITE-CITE-CITE-CITE-CITE-CITE-CITE-CITE

Your simulation uses code contributions which should be cited:

- GPU package (short-range, long-range and three-body potentials):

@Article{Brown11,
 author = {W. M. Brown, P. Wang, S. J. Plimpton, A. N. Tharrington},
 title = {Implementing Molecular Dynamics on Hybrid High Performance Computers - Short Range Forces},
 journal = {Comp.~Phys.~Comm.},
 year =    2011,
 volume =  182,
 pages =   {898--911}
}

@Article{Brown12,
 author = {W. M. Brown, A. Kohlmeyer, S. J. Plimpton, A. N. Tharrington},
 title = {Implementing Molecular Dynamics on Hybrid High Performance Computers - Particle-Particle Particle-Mesh},
 journal = {Comp.~Phys.~Comm.},
 year =    2012,
 volume =  183,
 pages =   {449--459}
}

@Article{Brown13,
 author = {W. M. Brown, Y. Masako},
 title = {Implementing Molecular Dynamics on Hybrid High Performance Computers – Three-Body Potentials},
 journal = {Comp.~Phys.~Comm.},
 year =    2013,
 volume =  184,
 pages =   {2785--2793}
}

@Article{Trung15,
 author = {T. D. Nguyen, S. J. Plimpton},
 title = {Accelerating dissipative particle dynamics simulations for soft matter systems},
 journal = {Comput.~Mater.~Sci.},
 year =    2015,
 volume =  100,
 pages =   {173--180}
}

@Article{Trung17,
 author = {T. D. Nguyen},
 title = {GPU-accelerated Tersoff potentials for massively parallel Molecular Dynamics simulations},
 journal = {Comp.~Phys.~Comm.},
 year =    2017,
 volume =  212,
 pages =   {113--122}
}

@Article{Nikolskiy19,
 author = {V. Nikolskiy, V. Stegailov},
 title = {GPU acceleration of four-site water models in LAMMPS},
 journal = {Proceeding of the International Conference on Parallel Computing (ParCo 2019), Prague, Czech Republic},
 year =    2019
}

CITE-CITE-CITE-CITE-CITE-CITE-CITE-CITE-CITE-CITE-CITE-CITE-CITE

Neighbor list info ...
  update every 1 steps, delay 0 steps, check yes
  max neighbors/atom: 2000, page size: 100000
  master list distance cutoff = 6
  ghost atom cutoff = 6
  binsize = 3, bins = 14 14 14
  1 neighbor lists, perpetual/occasional/extra = 1 0 0
  (1) pair allegro, perpetual
      attributes: full, newton on, ghost
      pair build: full/bin/ghost
      stencil: full/ghost/bin/3d
      bin: standard
Per MPI rank memory allocation (min/avg/max) = 4.335 | 4.335 | 4.335 Mbytes
Step Time Temp PotEng KinEng TotEng Press Density 
       0            0          500   -17983.606    19.375265   -17964.231    82.859539 0.0015069391 
     500          500    553.17618    -17986.41    21.435871   -17964.974   -12.185663 0.0015069391 
    1000         1000    539.40886   -17975.708    20.902379   -17954.805   -79.441602 0.0015069391 
    1500         1500    583.04861   -17975.669    22.593443   -17953.075   -17.745781 0.0015069391 
    2000         2000    654.63293   -17980.746    25.367373   -17955.379    37.799356 0.0015069391 
    2500         2500    357.47367    -17981.19    13.852294   -17967.338    18.464043 0.0015069391 
    3000         3000    504.99261   -17987.517    19.568732   -17967.948   -54.848406 0.0015069391 
    3500         3500    878.70835   -17983.699    34.050415   -17949.649   -79.348834 0.0015069391 
    4000         4000    696.19611   -17975.233    26.977969   -17948.255    47.991658 0.0015069391 
    4500         4500    382.43262   -17982.072    14.819467   -17967.253   -20.181432 0.0015069391 
    5000         5000    401.10986   -17983.743     15.54322   -17968.199   -52.491448 0.0015069391 
    5500         5500    382.81121   -17981.671    14.834137   -17966.837    73.009306 0.0015069391 
    6000         6000    584.47304   -17983.125     22.64864   -17960.477   -34.689991 0.0015069391 
    6500         6500    550.28022   -17984.704     21.32365   -17963.381    27.645298 0.0015069391 
    7000         7000    473.95127   -17986.746    18.365863    -17968.38   -4.8468738 0.0015069391 
    7500         7500       377.92   -17984.669    14.644601   -17970.024    78.446511 0.0015069391 
    8000         8000    373.98762   -17984.276    14.492219   -17969.784     11.51406 0.0015069391 
    8500         8500    629.27624   -17982.161    24.384788   -17957.776   -12.545245 0.0015069391 
    9000         9000    513.88863   -17974.196    19.913457   -17954.282   -8.0667665 0.0015069391 
    9500         9500    601.02628   -17983.414    23.290087   -17960.124    47.786417 0.0015069391 
   10000        10000    515.24259   -17984.016    19.965924    -17964.05    24.232266 0.0015069391 
   10500        10500    411.34442   -17980.995    15.939815   -17965.055   -47.955949 0.0015069391 
   11000        11000    511.80532   -17984.509    19.832728   -17964.676     7.730186 0.0015069391 
   11500        11500    701.41821   -17986.993    27.180328   -17959.813   -14.370882 0.0015069391 
   12000        12000    433.14463   -17974.116    16.784584   -17957.331   -33.642261 0.0015069391 
   12500        12500    484.46815   -17978.699    18.773398   -17959.925   -48.150627 0.0015069391 
   13000        13000    478.51532   -17983.054    18.542723   -17964.511   -27.827359 0.0015069391 
   13500        13500    425.78105   -17984.374    16.499242   -17967.875    -57.99332 0.0015069391 
   14000        14000     461.3132   -17979.173    17.876131   -17961.297    -22.38898 0.0015069391 
   14500        14500    476.59558   -17980.828    18.468332   -17962.359   -47.308202 0.0015069391 
   15000        15000    430.98958   -17986.022    16.701075   -17969.321   -21.648788 0.0015069391 
   15500        15500    366.25663   -17986.269    14.192639   -17972.076    4.4174899 0.0015069391 
   16000        16000    346.81951   -17984.439     13.43944   -17970.999    29.214278 0.0015069391 
   16500        16500    457.56265   -17978.223    17.730796   -17960.492    75.955857 0.0015069391 
   17000        17000    502.42079   -17979.992    19.469072   -17960.523    43.857823 0.0015069391 
   17500        17500    366.68814   -17982.518     14.20936   -17968.309    33.184459 0.0015069391 
   18000        18000     415.8524   -17989.793    16.114501   -17973.678     55.74424 0.0015069391 
   18500        18500    489.46603   -17985.375    18.967068   -17966.408    102.73919 0.0015069391 
   19000        19000    667.18665   -17990.277    25.853837   -17964.423   -19.411994 0.0015069391 
   19500        19500    488.55926   -17975.935    18.931931   -17957.003   -44.559316 0.0015069391 
   20000        20000    806.68043   -17979.409    31.259295   -17948.149   -43.840818 0.0015069391 
   20500        20500    361.81325   -17984.587    14.020455   -17970.567    6.8862862 0.0015069391 
   21000        21000    425.38529   -17987.347    16.483906   -17970.863   -28.386568 0.0015069391 
   21500        21500    422.02506   -17984.506    16.353695   -17968.152   -77.995116 0.0015069391 
   22000        22000    562.19143   -17986.231    21.785216   -17964.445    60.517268 0.0015069391 
   22500        22500    608.96141   -17985.944    23.597578   -17962.346    9.8627845 0.0015069391 
   23000        23000    725.25238   -17977.567    28.103915   -17949.463     20.84768 0.0015069391 
   23500        23500    582.49317   -17976.358    22.571919   -17953.786    21.268101 0.0015069391 
   24000        24000     758.5599   -17987.068    29.394599   -17957.673    1.6864126 0.0015069391 
   24500        24500    522.46371   -17983.349    20.245746   -17963.103   -28.669321 0.0015069391 
   25000        25000    489.25608   -17973.546    18.958933   -17954.587   -81.219238 0.0015069391 
   25500        25500    583.39574   -17980.363    22.606894   -17957.756   -54.796875 0.0015069391 
   26000        26000    434.63162   -17984.905    16.842206   -17968.063    79.482785 0.0015069391 
   26500        26500    555.86776   -17989.719    21.540171   -17968.179    32.435383 0.0015069391 
   27000        27000    570.16197   -17983.649    22.094079   -17961.555    50.359468 0.0015069391 
   27500        27500     637.3134   -17981.003    24.696233   -17956.307   -10.597061 0.0015069391 
   28000        28000    477.49589   -17980.191    18.503219   -17961.688   -101.35316 0.0015069391 
   28500        28500    466.14362   -17982.762    18.063313   -17964.699   -99.486357 0.0015069391 
   29000        29000    314.69488   -17987.418    12.194594   -17975.223    6.7743349 0.0015069391 
   29500        29500    425.61419   -17973.869    16.492776   -17957.376     25.65583 0.0015069391 
   30000        30000    442.39422   -17984.668    17.143011   -17967.525    66.123336 0.0015069391 
   30500        30500     370.6459    -17977.53    14.362725   -17963.167   -70.948979 0.0015069391 
   31000        31000    582.73173   -17977.936    22.581164   -17955.355    58.061426 0.0015069391 
   31500        31500    496.15441   -17975.966    19.226246   -17956.739    119.75227 0.0015069391 
   32000        32000    447.27619   -17979.337     17.33219   -17962.005    73.816345 0.0015069391 
   32500        32500    417.63417     -17986.2    16.183546   -17970.016   -35.054058 0.0015069391 
   33000        33000    458.17557    -17981.43    17.754547   -17963.675   -60.818747 0.0015069391 
   33500        33500    576.95045   -17979.413    22.357136   -17957.056   -9.4241241 0.0015069391 
   34000        34000    698.96687   -17987.769    27.085337   -17960.683    31.545699 0.0015069391 
   34500        34500    305.78507   -17977.954    11.849334   -17966.104    22.654708 0.0015069391 
   35000        35000    509.33668   -17982.277    19.737067    -17962.54    83.453474 0.0015069391 
   35500        35500    537.61694   -17975.365    20.832942   -17954.532    7.5192864 0.0015069391 
   36000        36000    529.90929   -17974.746    20.534266   -17954.211    33.104916 0.0015069391 
   36500        36500    443.07615   -17982.188    17.169436   -17965.018    11.877952 0.0015069391 
   37000        37000    450.31534   -17982.977    17.449958   -17965.527   -2.4659697 0.0015069391 
   37500        37500    393.79564   -17974.312     15.25979   -17959.053   -67.036603 0.0015069391 
   38000        38000    723.31628   -17982.265     28.02889   -17954.236    16.222704 0.0015069391 
   38500        38500     399.8777   -17978.155    15.495473   -17962.659    66.594066 0.0015069391 
   39000        39000    427.11715   -17980.346    16.551016   -17963.795    48.480484 0.0015069391 
   39500        39500     573.4904   -17978.873    22.223057    -17956.65   -12.194561 0.0015069391 
   40000        40000    681.32516   -17985.596    26.401711   -17959.194    37.920828 0.0015069391 
   40500        40500    383.18949   -17981.679    14.848796   -17966.831    36.113593 0.0015069391 
   41000        41000    601.39024   -17985.616    23.304191   -17962.312    12.691214 0.0015069391 
   41500        41500    703.33139   -17983.225    27.254464    -17955.97   -2.3108699 0.0015069391 
   42000        42000    543.81593   -17974.496    21.073156   -17953.423   -20.490708 0.0015069391 
   42500        42500    599.51652   -17979.477    23.231583   -17956.245   -15.092147 0.0015069391 
   43000        43000    448.54989   -17981.021    17.381546   -17963.639   -18.082019 0.0015069391 
   43500        43500    408.56197   -17978.756    15.831993   -17962.924    57.734514 0.0015069391 
   44000        44000    684.11471   -17983.631    26.509808   -17957.121    71.776159 0.0015069391 
   44500        44500    509.82098    -17982.49    19.755834   -17962.734    43.535889 0.0015069391 
   45000        45000    500.89554   -17979.711    19.409968   -17960.301    73.793426 0.0015069391 
   45500        45500    602.31608   -17978.583    23.340068   -17955.243    5.7285648 0.0015069391 
   46000        46000    554.78356   -17970.849    21.498157    -17949.35   -31.998333 0.0015069391 
   46500        46500    791.90218   -17978.889     30.68663   -17948.202    -86.10078 0.0015069391 
   47000        47000    455.57783   -17984.986    17.653883   -17967.332    -17.16197 0.0015069391 
   47500        47500     340.5917   -17980.472    13.198109   -17967.274    34.699671 0.0015069391 
   48000        48000    552.92076   -17980.209    21.425973   -17958.783   -68.707567 0.0015069391 
   48500        48500    603.68494   -17982.312    23.393112   -17958.919    95.195786 0.0015069391 
   49000        49000    513.25986   -17985.098    19.889092   -17965.209    21.146194 0.0015069391 
   49500        49500     407.9788   -17984.545    15.809395   -17968.736    -35.20153 0.0015069391 
   50000        50000    576.27087   -17985.448    22.330802   -17963.118   -2.9054794 0.0015069391 
   50500        50500    472.41154   -17978.979    18.306198   -17960.673    71.155892 0.0015069391 
   51000        51000    573.26108   -17974.825    22.214171   -17952.611    37.054159 0.0015069391 
   51500        51500    418.60992   -17980.442    16.221356    -17964.22    -57.48739 0.0015069391 
   52000        52000     558.8331   -17990.302    21.655079   -17968.647   -1.1738393 0.0015069391 
   52500        52500    423.29594   -17979.229    16.402942   -17962.826    45.536258 0.0015069391 
   53000        53000    497.39879   -17978.884    19.274467    -17959.61   -52.383426 0.0015069391 
   53500        53500    378.44105   -17979.039    14.664792   -17964.374   -18.210825 0.0015069391 
   54000        54000    538.46035   -17983.939    20.865624   -17963.074    -71.53499 0.0015069391 
   54500        54500    561.59301   -17981.897    21.762027   -17960.135   0.76483535 0.0015069391 
   55000        55000    489.65224   -17985.263    18.974284   -17966.289    65.885632 0.0015069391 
   55500        55500    684.46745   -17992.458    26.523477   -17965.934    7.2729231 0.0015069391 
   56000        56000    597.45788    -17979.93     23.15181   -17956.779   -3.4418023 0.0015069391 
   56500        56500    661.82117   -17981.355    25.645922   -17955.709    -61.38451 0.0015069391 
   57000        57000    583.23683   -17980.045    22.600737   -17957.444    39.737431 0.0015069391 
   57500        57500    665.07514   -17989.798    25.772015   -17964.026    68.642784 0.0015069391 
   58000        58000    552.44589   -17989.936    21.407571   -17968.528   -9.4464796 0.0015069391 
   58500        58500    517.44136   -17975.375    20.051127   -17955.324   -73.847941 0.0015069391 
   59000        59000    571.40921   -17976.847     22.14241   -17954.705     55.50585 0.0015069391 
   59500        59500     375.2449   -17973.538    14.540939   -17958.997    1.3163124 0.0015069391 
   60000        60000    390.32866   -17993.904    15.125443   -17978.778    21.405277 0.0015069391 
   60500        60500    405.57473    -17980.24    15.716236   -17964.524   -37.863587 0.0015069391 
   61000        61000    470.37277   -17980.131    18.227195   -17961.904   -56.579839 0.0015069391 
   61500        61500    461.89275    -17981.45    17.898589   -17963.551    89.802638 0.0015069391 
   62000        62000    424.83359     -17985.7    16.462527   -17969.237   -3.2429082 0.0015069391 
   62500        62500    440.99002   -17986.229    17.088597    -17969.14   -51.079371 0.0015069391 
   63000        63000    361.22688   -17983.855    13.997733   -17969.858    33.957206 0.0015069391 
   63500        63500    511.08527   -17982.586    19.804826   -17962.781   -33.355053 0.0015069391 
   64000        64000    577.81061   -17984.423    22.390468   -17962.032   -38.731049 0.0015069391 
   64500        64500    329.42755   -17982.457    12.765492   -17969.691    43.416479 0.0015069391 
   65000        65000    511.65845   -17985.527    19.827037     -17965.7     54.20755 0.0015069391 
   65500        65500    447.50411   -17977.451    17.341022    -17960.11    30.195428 0.0015069391 
   66000        66000     471.2112   -17986.879    18.259684    -17968.62    2.5121089 0.0015069391 
   66500        66500    383.56147   -17982.158    14.863211   -17967.295   -43.680467 0.0015069391 
   67000        67000    459.86331   -17984.402    17.819947   -17966.582     53.05952 0.0015069391 
   67500        67500    535.06544   -17983.724     20.73407    -17962.99   -25.870779 0.0015069391 
   68000        68000    520.86455   -17970.546    20.183778   -17950.362    42.657789 0.0015069391 
   68500        68500    750.13329   -17979.381    29.068063   -17950.313   -68.079868 0.0015069391 
   69000        69000    429.54812   -17973.364    16.645217   -17956.719    31.024347 0.0015069391 
   69500        69500    647.15245   -17985.348    25.077501   -17960.271     -34.7035 0.0015069391 
   70000        70000    323.75908   -17979.794    12.545836   -17967.248   -3.5270939 0.0015069391 
   70500        70500    381.08915    -17990.18    14.767407   -17975.413   -4.8799706 0.0015069391 
   71000        71000    522.10036   -17982.059    20.231666   -17961.828    27.557274 0.0015069391 
   71500        71500    594.70139    -17983.94    23.044994   -17960.895    23.341311 0.0015069391 
   72000        72000    518.66768   -17983.808    20.098648   -17963.709    39.554957 0.0015069391 
   72500        72500    397.63144   -17989.227    15.408429   -17973.819    51.261116 0.0015069391 
   73000        73000    532.38961   -17991.025     20.63038   -17970.395    51.594474 0.0015069391 
   73500        73500    394.70191   -17983.127    15.294909   -17967.832   -20.281879 0.0015069391 
   74000        74000    445.16244   -17977.993    17.250281   -17960.742    6.2695723 0.0015069391 
   74500        74500    413.52509   -17982.764    16.024317    -17966.74    4.5768728 0.0015069391 
   75000        75000    455.83736   -17983.086     17.66394   -17965.422    14.154719 0.0015069391 
   75500        75500    499.23209    -17976.45    19.345508   -17957.105   -80.105887 0.0015069391 
   76000        76000    578.37324   -17972.329     22.41227   -17949.917    38.537586 0.0015069391 
   76500        76500    654.61259   -17978.975    25.366585   -17953.609    32.075734 0.0015069391 
   77000        77000    653.21041   -17981.968     25.31225   -17956.655    43.754035 0.0015069391 
   77500        77500    437.36218   -17980.558    16.948017    -17963.61   -45.833077 0.0015069391 
   78000        78000    462.82209    -17985.59    17.934602   -17967.655    12.878449 0.0015069391 
   78500        78500    634.03472   -17981.094    24.569182   -17956.525   -6.9997127 0.0015069391 
   79000        79000    860.41082   -17982.589    33.341376   -17949.247   -37.996433 0.0015069391 
   79500        79500    557.58916   -17979.411    21.606876   -17957.804   -57.734612 0.0015069391 
   80000        80000     470.8427   -17980.982    18.245404   -17962.736    5.4596817 0.0015069391 
   80500        80500    465.46458   -17985.715    18.036999   -17967.678   -41.691593 0.0015069391 
   81000        81000    562.85416   -17981.113    21.810898   -17959.302    12.367901 0.0015069391 
   81500        81500    541.44073   -17975.378    20.981116   -17954.396    89.039214 0.0015069391 
   82000        82000    516.24815   -17978.616     20.00489   -17958.611    57.772632 0.0015069391 
   82500        82500    444.67786   -17982.433    17.231503   -17965.201    -19.84843 0.0015069391 
   83000        83000    523.80423   -17984.707    20.297692    -17964.41    -17.65642 0.0015069391 
   83500        83500    514.92466   -17988.999    19.953604   -17969.045    45.637194 0.0015069391 
   84000        84000    501.87702    -17980.79    19.448001   -17961.342    11.573587 0.0015069391 
   84500        84500    341.36188   -17978.553    13.227954   -17965.326   -70.342376 0.0015069391 
   85000        85000    239.59718   -17980.759    9.2845178   -17971.475   -26.472806 0.0015069391 
   85500        85500    349.03346   -17988.483    13.525232   -17974.958   -1.9414153 0.0015069391 
   86000        86000    693.08353   -17985.464    26.857355   -17958.607   -9.0300083 0.0015069391 
   86500        86500    504.85173   -17981.477    19.563272   -17961.914    17.500665 0.0015069391 
   87000        87000    556.66245   -17987.125    21.570965   -17965.554     16.93799 0.0015069391 
   87500        87500    384.72751   -17983.023    14.908395   -17968.115   -48.409214 0.0015069391 
   88000        88000    395.67709    -17986.21    15.332697   -17970.878    -73.97784 0.0015069391 
   88500        88500    413.52231   -17984.243    16.024209   -17968.219    12.186979 0.0015069391 
   89000        89000    529.88433   -17984.516    20.533299   -17963.983    60.787105 0.0015069391 
   89500        89500    458.49787   -17975.657    17.767036    -17957.89    59.060885 0.0015069391 
   90000        90000    361.71207   -17983.504    14.016534   -17969.488   -3.4349992 0.0015069391 
   90500        90500    371.71858   -17987.665    14.404292   -17973.261    6.7104444 0.0015069391 
   91000        91000    324.96973   -17980.187     12.59275   -17967.594   -36.946466 0.0015069391 
   91500        91500    540.14924   -17978.444     20.93107   -17957.513    11.993638 0.0015069391 
   92000        92000    548.73279   -17978.409    21.263687   -17957.145    21.747747 0.0015069391 
   92500        92500    489.51424    -17975.16    18.968937   -17956.191   -18.870484 0.0015069391 
   93000        93000    533.62483   -17984.026    20.678245   -17963.348     -66.9688 0.0015069391 
   93500        93500    361.68154    -17981.51    14.015352   -17967.494   -3.4342085 0.0015069391 
   94000        94000    333.63505   -17985.947    12.928535   -17973.019   -72.266809 0.0015069391 
   94500        94500    368.76037   -17982.617     14.28966   -17968.328    -11.18421 0.0015069391 
   95000        95000    568.41869   -17988.036    22.026526   -17966.009    2.8092175 0.0015069391 
   95500        95500    615.80957    -17984.22    23.862948   -17960.357    47.432047 0.0015069391 
   96000        96000    479.98275   -17972.938    18.599586   -17954.338     12.36564 0.0015069391 
   96500        96500    600.71641    -17977.45    23.278079   -17954.172   -33.227214 0.0015069391 
   97000        97000     537.7027    -17981.81    20.836265   -17960.974    25.793283 0.0015069391 
   97500        97500    461.04181   -17983.516    17.865615    -17965.65   -67.037184 0.0015069391 
   98000        98000    238.13421   -17979.891    9.2278269   -17970.664   -0.9591363 0.0015069391 
   98500        98500    346.03776   -17986.149    13.409147    -17972.74    29.176981 0.0015069391 
   99000        99000    583.43959   -17983.282    22.608594   -17960.674    10.761123 0.0015069391 
   99500        99500    532.50441   -17979.797    20.634828   -17959.162     15.16468 0.0015069391 
  100000       100000     507.2108   -17984.871    19.654688   -17965.216   -3.8643157 0.0015069391 
  100500       100500    456.30572   -17984.863    17.682089   -17967.181   -29.812093 0.0015069391 
  101000       101000    324.86515   -17979.771    12.588697   -17967.182    3.2608149 0.0015069391 
  101500       101500    549.28245    -17980.86    21.284987   -17959.575   -37.850719 0.0015069391 
  102000       102000    386.45392   -17973.929    14.975294   -17958.953     -76.0828 0.0015069391 
  102500       102500    425.18252   -17983.766    16.476048    -17967.29    68.128877 0.0015069391 
  103000       103000    370.28595   -17986.413    14.348777   -17972.064    13.656625 0.0015069391 
  103500       103500    508.85418   -17985.014    19.718369   -17965.296    -6.990908 0.0015069391 
  104000       104000     329.8379   -17973.963    12.781394   -17961.181    -73.68826 0.0015069391 
  104500       104500    371.10944   -17983.406    14.380688   -17969.026   -46.983113 0.0015069391 
  105000       105000    518.13985   -17989.621    20.078194   -17969.543     29.38944 0.0015069391 
  105500       105500    466.37308   -17986.153    18.072204   -17968.081    21.972247 0.0015069391 
  106000       106000    410.24473   -17979.665    15.897201   -17963.768   -45.357498 0.0015069391 
  106500       106500    636.44711   -17981.902    24.662663   -17957.239    -48.87366 0.0015069391 
  107000       107000    609.03448   -17983.211    23.600409   -17959.611    -8.828764 0.0015069391 
  107500       107500    626.21689   -17990.749    24.266237   -17966.483   -1.6318873 0.0015069391 
  108000       108000    419.59894   -17985.729    16.259682   -17969.469   -24.475666 0.0015069391 
  108500       108500    513.51524   -17980.206    19.898988   -17960.307    2.5468562 0.0015069391 
  109000       109000    686.82031   -17985.522    26.614651   -17958.908     66.76379 0.0015069391 
  109500       109500    378.66576   -17982.896    14.673499   -17968.222   -43.766507 0.0015069391 
  110000       110000    401.39274   -17986.094    15.554182    -17970.54    91.160412 0.0015069391 
  110500       110500     531.4404   -17984.388    20.593598   -17963.795   -47.171481 0.0015069391 
  111000       111000    505.86005    -17975.12    19.602346   -17955.517   -17.298929 0.0015069391 
  111500       111500    477.82433   -17968.183    18.515946   -17949.667   -10.997473 0.0015069391 
  112000       112000     400.9692   -17967.883    15.537769   -17952.346    66.347552 0.0015069391 
  112500       112500    443.66463   -17983.511     17.19224   -17966.319   -3.8329311 0.0015069391 
  113000       113000    528.20107   -17987.054    20.468072   -17966.586   -17.628957 0.0015069391 
  113500       113500    560.64764   -17986.359    21.725393   -17964.634    62.355036 0.0015069391 
  114000       114000    532.18659    -17975.92    20.622513   -17955.297   -72.910361 0.0015069391 
  114500       114500    618.51913   -17975.204    23.967944   -17951.236   -61.699115 0.0015069391 
  115000       115000    638.74347   -17981.273    24.751648   -17956.521   -57.810718 0.0015069391 
  115500       115500    523.17578   -17982.447    20.273339   -17962.173    90.546611 0.0015069391 
  116000       116000    256.79337    -17982.74    9.9508793   -17972.789   -7.3308953 0.0015069391 
  116500       116500    491.42531       -17990    19.042991   -17970.957   -46.657283 0.0015069391 
  117000       117000    519.76845   -17979.625    20.141303   -17959.484    60.088342 0.0015069391 
  117500       117500    508.43844   -17982.747    19.702259   -17963.045   -15.476042 0.0015069391 
  118000       118000    336.53054   -17978.628    13.040737   -17965.587   -15.226265 0.0015069391 
  118500       118500    556.29509   -17987.876     21.55673   -17966.319   -21.373823 0.0015069391 
  119000       119000    669.17871   -17989.337     25.93103   -17963.406   -5.3243071 0.0015069391 
  119500       119500    658.76662   -17981.892    25.527556   -17956.364   -34.636635 0.0015069391 
  120000       120000    581.73506   -17975.075    22.542542   -17952.532    -26.66033 0.0015069391 
  120500       120500    675.71801   -17988.488    26.184431   -17962.304    3.2816502 0.0015069391 
  121000       121000    503.14795   -17985.257     19.49725   -17965.759   -76.991061 0.0015069391 
  121500       121500    371.08899   -17983.158    14.379895   -17968.778   -3.6048702 0.0015069391 
  122000       122000    399.11882    -17991.51    15.466066   -17976.044   -49.088289 0.0015069391 
  122500       122500    460.50348   -17982.259    17.844754   -17964.415       12.048 0.0015069391 
  123000       123000    493.98056   -17981.067    19.142009   -17961.925    27.666122 0.0015069391 
  123500       123500    601.23586   -17985.227    23.298209   -17961.929   -13.780748 0.0015069391 
  124000       124000    411.55906   -17990.385    15.948132   -17974.437    -22.50102 0.0015069391 
  124500       124500    398.93236   -17987.554    15.458841   -17972.095    7.1412432 0.0015069391 
  125000       125000    435.05921   -17984.994    16.858775   -17968.135   -5.3280572 0.0015069391 
  125500       125500     555.1985   -17985.206    21.514237   -17963.692   -84.050867 0.0015069391 
  126000       126000    522.85288   -17980.763    20.260826   -17960.502   -7.6624058 0.0015069391 
  126500       126500    540.41642   -17974.925    20.941423   -17953.984    45.048621 0.0015069391 
  127000       127000    517.80219   -17985.877     20.06511   -17965.812    47.376237 0.0015069391 
  127500       127500    291.64466   -17981.329    11.301385   -17970.027    23.920743 0.0015069391 
  128000       128000    602.54455    -17987.06    23.348921   -17963.711     49.42803 0.0015069391 
  128500       128500    716.91346    -17987.06    27.780777   -17959.279     9.628237 0.0015069391 
  129000       129000    617.39874   -17982.644    23.924529   -17958.719   -12.405462 0.0015069391 
  129500       129500    460.79247   -17982.433    17.855953   -17964.577   -69.948527 0.0015069391 
  130000       130000    569.89764   -17986.807    22.083836   -17964.723    5.8117039 0.0015069391 
  130500       130500    415.43936   -17983.588    16.098496   -17967.489    63.090666 0.0015069391 
  131000       131000    761.40861   -17966.067    29.504988   -17936.562   -57.311589 0.0015069391 
  131500       131500    531.12581   -17985.626    20.581407   -17965.045    15.228866 0.0015069391 
  132000       132000     437.4783   -17981.614    16.952516   -17964.662   -21.107153 0.0015069391 
  132500       132500    317.21575   -17980.601    12.292279   -17968.309   -18.805116 0.0015069391 
  133000       133000      401.884   -17984.881    15.573218   -17969.307    29.169678 0.0015069391 
  133500       133500    438.92884   -17981.376    17.008725   -17964.367    34.312526 0.0015069391 
  134000       134000    699.40465    -17988.15    27.102301   -17961.048    29.882857 0.0015069391 
  134500       134500    543.34362   -17983.343    21.054854   -17962.288    15.928009 0.0015069391 
  135000       135000    431.12273   -17988.384    16.706234   -17971.678   -20.076653 0.0015069391 
  135500       135500    447.53846   -17983.518    17.342353   -17966.175   -68.579647 0.0015069391 
  136000       136000    457.30786   -17977.426    17.720922   -17959.705    31.729254 0.0015069391 
  136500       136500    599.77574   -17978.196    23.241628   -17954.954   -65.477923 0.0015069391 
  137000       137000    652.67145   -17975.581    25.291365   -17950.289   -31.121208 0.0015069391 
  137500       137500    609.18704    -17983.01    23.606321   -17959.404   -27.971222 0.0015069391 
  138000       138000    548.52525   -17985.693    21.255645   -17964.438    52.761512 0.0015069391 
  138500       138500    504.70872   -17984.954    19.557731   -17965.397    102.75634 0.0015069391 
  139000       139000      563.822   -17986.778    21.848402    -17964.93   -25.007278 0.0015069391 
  139500       139500    534.48215   -17981.309    20.711467   -17960.598    -78.60852 0.0015069391 
  140000       140000     653.5242    -17984.79    25.324409   -17959.466   -83.671229 0.0015069391 
  140500       140500    525.11706   -17983.076    20.348565   -17962.727    75.384379 0.0015069391 
  141000       141000    387.64567   -17983.078    15.021476   -17968.056   -107.91286 0.0015069391 
  141500       141500    491.10606   -17984.547     19.03062   -17965.516   -31.291919 0.0015069391 
  142000       142000    647.35596   -17980.335    25.085387    -17955.25    4.7612898 0.0015069391 
  142500       142500    522.56963   -17972.524     20.24985   -17952.274    41.715111 0.0015069391 
  143000       143000    844.85087   -17985.727    32.738419   -17952.989    30.160659 0.0015069391 
  143500       143500    618.66161   -17984.627    23.973466   -17960.653   -20.557926 0.0015069391 
  144000       144000     377.5696   -17980.403    14.631023   -17965.772   -50.301452 0.0015069391 
  144500       144500    568.54917   -17988.996    22.031582   -17966.964    9.6585618 0.0015069391 
  145000       145000    580.55962   -17984.121    22.496993   -17961.624    9.8044601 0.0015069391 
  145500       145500    481.91148   -17988.119    18.674325   -17969.445    19.771377 0.0015069391 
  146000       146000    386.73294   -17986.813    14.986107   -17971.827    86.764084 0.0015069391 
  146500       146500    341.26647   -17986.497    13.224257   -17973.272    -72.32089 0.0015069391 
  147000       147000    446.07713   -17979.786    17.285726     -17962.5   -11.661533 0.0015069391 
  147500       147500    451.10624   -17980.353    17.480606   -17962.872   -71.066842 0.0015069391 
  148000       148000    459.12449   -17988.612    17.791318   -17970.821   -0.8510337 0.0015069391 
  148500       148500    464.47337    -17984.95     17.99859   -17966.951    64.727029 0.0015069391 
  149000       149000    627.67662   -17979.912    24.322802   -17955.589    11.452218 0.0015069391 
  149500       149500    570.03348   -17980.098      22.0891   -17958.008   -64.947438 0.0015069391 
  150000       150000    386.38573    -17984.79    14.972652   -17969.818   -37.287641 0.0015069391 
  150500       150500    475.44652   -17988.356    18.423805   -17969.932   -25.247556 0.0015069391 
  151000       151000    481.74661   -17981.813    18.667937   -17963.145     41.28818 0.0015069391 
  151500       151500    529.94747   -17978.712    20.535746   -17958.176    70.650529 0.0015069391 
  152000       152000    435.69492   -17988.064    16.883409    -17971.18    109.22785 0.0015069391 
  152500       152500    365.52336   -17987.952    14.164224   -17973.788    -37.36323 0.0015069391 
  153000       153000    610.93122   -17979.114    23.673909    -17955.44   -64.362569 0.0015069391 
  153500       153500     428.8943   -17981.063    16.619882   -17964.443    48.656377 0.0015069391 
  154000       154000    466.89711   -17985.192    18.092511   -17967.099   -54.041948 0.0015069391 
  154500       154500    528.30184   -17986.915    20.471977   -17966.443    48.369435 0.0015069391 
  155000       155000    544.59817   -17983.322    21.103468   -17962.219    37.063641 0.0015069391 
  155500       155500    564.96557   -17979.197    21.892716   -17957.305   -5.0679242 0.0015069391 
  156000       156000    598.04187   -17977.483     23.17444   -17954.308    -13.14316 0.0015069391 
  156500       156500    565.21875   -17984.545    21.902526   -17962.642   -13.728206 0.0015069391 
  157000       157000    494.86044   -17985.454    19.176105   -17966.278    16.631906 0.0015069391 
  157500       157500    409.68252   -17984.484    15.875415   -17968.608    76.426508 0.0015069391 
  158000       158000    347.81228   -17982.526     13.47791   -17969.048    6.6459107 0.0015069391 
  158500       158500    482.79782   -17980.641    18.708672   -17961.933    39.335028 0.0015069391 
  159000       159000    377.36827   -17986.157    14.623221   -17971.534    2.0467182 0.0015069391 
  159500       159500    338.91451   -17986.011    13.133117   -17972.878   -39.930116 0.0015069391 
  160000       160000    621.63022   -17984.327    24.088501   -17960.238    31.279878 0.0015069391 
  160500       160500    472.96221   -17981.788    18.327536    -17963.46   -14.115806 0.0015069391 
  161000       161000    361.07887   -17980.419    13.991998   -17966.427    121.40231 0.0015069391 
  161500       161500    516.34443   -17991.952     20.00862   -17971.944    29.315559 0.0015069391 
  162000       162000    359.00597   -17981.773    13.911672   -17967.862    1.5865275 0.0015069391 
  162500       162500    531.03193   -17981.959    20.577769   -17961.381    33.180165 0.0015069391 
  163000       163000    583.18267   -17973.208    22.598638   -17950.609   -67.456049 0.0015069391 
  163500       163500    709.21061   -17984.017    27.482288   -17956.535    35.946244 0.0015069391 
  164000       164000    630.12546    -17988.34    24.417696   -17963.923   -19.968629 0.0015069391 
  164500       164500    375.41328   -17984.227    14.547464    -17969.68  -0.38533296 0.0015069391 
  165000       165000    444.42701   -17985.424    17.221783   -17968.203   -6.9440271 0.0015069391 
  165500       165500    585.31979   -17991.161    22.681453    -17968.48   -8.1219859 0.0015069391 
  166000       166000    472.56072   -17979.508    18.311979   -17961.196   0.68757311 0.0015069391 
  166500       166500    414.11248   -17979.296    16.047078   -17963.249    9.4622008 0.0015069391 
  167000       167000    362.82757   -17986.555    14.059761   -17972.496   -17.369094 0.0015069391 
  167500       167500    474.15682   -17990.516    18.373828   -17972.143   -63.215485 0.0015069391 
  168000       168000    517.71563   -17984.176    20.061755   -17964.114    60.195329 0.0015069391 
  168500       168500    428.85213    -17979.67    16.618248   -17963.052   -78.951561 0.0015069391 
  169000       169000    344.06691   -17983.689    13.332775   -17970.357    1.5329743 0.0015069391 
  169500       169500    482.78229    -17984.29     18.70807   -17965.582     36.59956 0.0015069391 
  170000       170000    483.29426   -17978.926    18.727909   -17960.198    114.20294 0.0015069391 
  170500       170500    662.37474   -17991.109    25.667373   -17965.441   -50.054626 0.0015069391 
  171000       171000    327.42882   -17981.312     12.68804   -17968.624   -84.447216 0.0015069391 
  171500       171500    397.65624   -17983.241     15.40939   -17967.832   -39.312493 0.0015069391 
  172000       172000    447.48349   -17980.114    17.340223   -17962.774    102.07768 0.0015069391 
  172500       172500     566.1959   -17979.177    21.940391   -17957.236   -69.114207 0.0015069391 
  173000       173000    588.43573   -17974.833    22.802197   -17952.031   -1.8152948 0.0015069391 
  173500       173500    658.73928   -17972.041    25.526497   -17946.514   -2.4916197 0.0015069391 
  174000       174000    427.37405   -17983.723    16.560971   -17967.162    17.421253 0.0015069391 
  174500       174500    342.70528   -17982.203    13.280011   -17968.923   -62.429164 0.0015069391 
  175000       175000    596.12084   -17985.316    23.099999   -17962.216   -6.6858597 0.0015069391 
  175500       175500    334.97708   -17985.079    12.980539   -17972.099    32.122661 0.0015069391 
  176000       176000    437.59968   -17986.199     16.95722   -17969.242     33.89071 0.0015069391 
  176500       176500    381.23889   -17977.912    14.773209   -17963.139    59.793508 0.0015069391 
  177000       177000    675.91041   -17981.788    26.191887   -17955.596    62.666185 0.0015069391 
  177500       177500    494.29919   -17973.692    19.154356   -17954.538   -21.284685 0.0015069391 
  178000       178000    560.48342   -17985.134     21.71903   -17963.415   -21.056023 0.0015069391 
  178500       178500    439.94776   -17982.027    17.048209   -17964.979   -37.811134 0.0015069391 
  179000       179000    380.44882   -17978.319    14.742594   -17963.576   -62.991053 0.0015069391 
  179500       179500    697.56706   -17982.765    27.031094   -17955.734    -107.0335 0.0015069391 
  180000       180000    463.92433   -17984.546    17.977314   -17966.569   -7.3772461 0.0015069391 
  180500       180500     465.7098   -17989.205    18.046502   -17971.159    41.046557 0.0015069391 
  181000       181000    406.11389   -17979.566    15.737129   -17963.829    89.674369 0.0015069391 
  181500       181500     577.9854   -17981.476    22.397241   -17959.079    78.846113 0.0015069391 
  182000       182000     546.6772   -17982.283    21.184032   -17961.099    78.444465 0.0015069391 
  182500       182500    549.68876   -17984.099    21.300731   -17962.798    68.700956 0.0015069391 
  183000       183000    468.33083   -17982.807    18.148068   -17964.659   -18.583504 0.0015069391 
  183500       183500    521.06764   -17986.147    20.191648   -17965.955      9.28856 0.0015069391 
  184000       184000    226.80034   -17974.645    8.7886335   -17965.856   -22.960816 0.0015069391 
  184500       184500    591.90296   -17986.408    22.936554   -17963.471   -8.1421735 0.0015069391 
  185000       185000    506.95653   -17979.592    19.644834   -17959.947    15.540006 0.0015069391 
  185500       185500    659.18843   -17986.119    25.543901   -17960.575   -37.087117 0.0015069391 
  186000       186000    447.88755   -17985.706     17.35588    -17968.35   -4.1322457 0.0015069391 
  186500       186500    456.99763   -17985.639    17.708901    -17967.93    33.355561 0.0015069391 
  187000       187000    572.30189   -17988.904    22.177002   -17966.727   -48.015156 0.0015069391 
  187500       187500    430.78105   -17977.806    16.692994   -17961.113   -18.840378 0.0015069391 
  188000       188000    618.54032   -17978.398    23.968765   -17954.429    2.2771126 0.0015069391 
  188500       188500    434.65561   -17979.267    16.843136   -17962.424   -18.589244 0.0015069391 
  189000       189000    346.22443   -17990.764     13.41638   -17977.348   -7.6621004 0.0015069391 
  189500       189500    428.62186   -17981.664    16.609325   -17965.055   -9.1844183 0.0015069391 
  190000       190000    554.87869    -17983.67    21.501844   -17962.168   -41.060777 0.0015069391 
  190500       190500    320.15239   -17973.862    12.406075   -17961.456    7.1056147 0.0015069391 
  191000       191000    538.77532   -17986.867    20.877829   -17965.989     6.806786 0.0015069391 
  191500       191500    326.04262   -17977.586    12.634324   -17964.952    -32.64291 0.0015069391 
  192000       192000    398.50278    -17971.64    15.442194   -17956.198   -109.05955 0.0015069391 
  192500       192500    325.88733   -17974.386    12.628307   -17961.758   -102.14592 0.0015069391 
  193000       193000    469.42644   -17985.235    18.190524   -17967.045    2.4749896 0.0015069391 
  193500       193500     299.4203   -17986.521    11.602695   -17974.918    64.253179 0.0015069391 
  194000       194000    401.93961   -17983.104    15.575373   -17967.529    38.629754 0.0015069391 
  194500       194500    504.18453   -17980.713    19.537418   -17961.176   -10.386322 0.0015069391 
  195000       195000     486.4334   -17987.806    18.849552   -17968.956    21.157867 0.0015069391 
  195500       195500     328.7031    -17980.01     12.73742   -17967.273    -40.59075 0.0015069391 
  196000       196000    348.02981   -17979.082     13.48634   -17965.595    1.9936053 0.0015069391 
  196500       196500    419.50882   -17980.919     16.25619   -17964.663   -20.070224 0.0015069391 
  197000       197000    419.59366   -17981.651    16.259477   -17965.391   -47.259433 0.0015069391 
  197500       197500    589.00288    -17985.63    22.824174   -17962.806    25.056755 0.0015069391 
  198000       198000    630.78998   -17982.244    24.443447     -17957.8    26.436417 0.0015069391 
  198500       198500    460.60248   -17981.591    17.848591   -17963.742   -45.212559 0.0015069391 
  199000       199000    438.29424   -17986.769    16.984134   -17969.785   -9.7576304 0.0015069391 
  199500       199500    692.63397   -17983.866    26.839934   -17957.026   -24.316917 0.0015069391 
  200000       200000    595.73033   -17978.192    23.084866   -17955.107   -87.113854 0.0015069391 
  200500       200500     524.5786   -17977.683    20.327699   -17957.355    55.815981 0.0015069391 
  201000       201000    509.16819   -17983.433    19.730537   -17963.702    6.7991354 0.0015069391 
  201500       201500    374.15071   -17981.524    14.498538   -17967.025     24.41459 0.0015069391 
  202000       202000    601.87744   -17981.784     23.32307   -17958.461    37.541815 0.0015069391 
  202500       202500    556.54718   -17981.849    21.566499   -17960.283    26.108577 0.0015069391 
  203000       203000      440.192   -17982.149    17.057673   -17965.092    12.703154 0.0015069391 
  203500       203500    362.57169    -17986.67    14.049845    -17972.62   -24.383887 0.0015069391 
  204000       204000    480.68996   -17986.804    18.626991   -17968.177    -32.68809 0.0015069391 
  204500       204500    388.05027   -17978.095    15.037154   -17963.058   -23.796308 0.0015069391 
  205000       205000    462.61346   -17987.548    17.926517   -17969.621   -18.918569 0.0015069391 
  205500       205500    413.28393   -17984.714    16.014972   -17968.699   -8.0509091 0.0015069391 
  206000       206000    446.88404    -17979.05    17.316994   -17961.733    21.189585 0.0015069391 
  206500       206500    483.49489   -17989.717    18.735684   -17970.982   -17.765529 0.0015069391 
  207000       207000    418.99522   -17987.407    16.236287   -17971.171    16.411455 0.0015069391 
  207500       207500    424.31311   -17978.134    16.442358   -17961.691    38.914529 0.0015069391 
  208000       208000    690.75194   -17984.314    26.767004   -17957.547    72.650958 0.0015069391 
  208500       208500    300.26304   -17986.408    11.635352   -17974.772    29.468131 0.0015069391 
  209000       209000    546.23212   -17988.134    21.166785   -17966.967    44.401708 0.0015069391 
  209500       209500    445.02884   -17978.784    17.245104   -17961.539   -31.868296 0.0015069391 
  210000       210000    563.43605   -17977.455    21.833446   -17955.621   -116.18603 0.0015069391 
  210500       210500    450.59126   -17982.752     17.46065   -17965.291   -59.229005 0.0015069391 
  211000       211000    423.11494   -17986.689    16.395928   -17970.293   -5.1483153 0.0015069391 
  211500       211500    349.68291   -17978.723    13.550398   -17965.172   -11.650632 0.0015069391 
  212000       212000    685.19502   -17988.014    26.551671   -17961.462   -68.780657 0.0015069391 
  212500       212500    630.68395   -17985.039    24.439338   -17960.599    28.688224 0.0015069391 
  213000       213000    378.26126   -17982.995    14.657825   -17968.337    14.608244 0.0015069391 
  213500       213500    473.18762   -17988.704    18.336272   -17970.368    19.029419 0.0015069391 
  214000       214000    518.66988   -17985.051    20.098733   -17964.952    25.825823 0.0015069391 
  214500       214500    583.21982   -17983.654    22.600078   -17961.053    13.909088 0.0015069391 
  215000       215000    561.07264   -17989.462    21.741862    -17967.72    40.628601 0.0015069391 
  215500       215500    339.00726   -17986.372    13.136711   -17973.235    50.565349 0.0015069391 
  216000       216000    550.37725   -17988.341     21.32741   -17967.014   -8.9159513 0.0015069391 
  216500       216500    575.90277   -17980.862    22.316538   -17958.546    -7.564977 0.0015069391 
  217000       217000    628.46592   -17980.303    24.353388   -17955.949    2.3734789 0.0015069391 
  217500       217500    600.44274   -17974.545    23.267475   -17951.278   -80.757816 0.0015069391 
  218000       218000    612.57396   -17983.061    23.737566   -17959.323    7.8430781 0.0015069391 
  218500       218500    391.78503   -17982.018    15.181878   -17966.836    32.707479 0.0015069391 
  219000       219000    299.08841   -17977.841    11.589835   -17966.251   -3.4465113 0.0015069391 
  219500       219500    580.10465   -17972.317    22.479363   -17949.837    18.791694 0.0015069391 
  220000       220000     674.3581   -17977.772    26.131734    -17951.64   -66.793108 0.0015069391 
  220500       220500    458.02941    -17984.56    17.748883   -17966.811     7.993055 0.0015069391 
  221000       221000    313.59905   -17978.722     12.15213    -17966.57    -23.68933 0.0015069391 
  221500       221500    552.59685   -17983.481    21.413421   -17962.068   -78.114236 0.0015069391 
  222000       222000    339.74418   -17981.595    13.165267    -17968.43    4.2659373 0.0015069391 
  222500       222500     462.0259   -17986.609    17.903749   -17968.706    41.809785 0.0015069391 
  223000       223000    435.85225   -17979.271    16.889506   -17962.382   -15.792591 0.0015069391 
  223500       223500    563.95376   -17981.594    21.853507   -17959.741     46.23188 0.0015069391 
  224000       224000    325.52818   -17987.062     12.61439   -17974.448    1.1181217 0.0015069391 
  224500       224500    264.89738   -17982.761    10.264914   -17972.496   -12.261367 0.0015069391 
  225000       225000    496.04295   -17982.535    19.221928   -17963.313   -2.3086353 0.0015069391 
  225500       225500    466.22985   -17976.325    18.066654   -17958.258    12.044506 0.0015069391 
  226000       226000     610.2672    -17983.35    23.648178   -17959.702    57.680462 0.0015069391 
  226500       226500    670.70019   -17981.549    25.989988   -17955.559   -29.144423 0.0015069391 
  227000       227000    497.09795   -17977.992    19.262809   -17958.729    19.955837 0.0015069391 
  227500       227500    449.02997   -17979.461     17.40015    -17962.06   -28.399427 0.0015069391 
  228000       228000    514.56163    -17985.31    19.939536   -17965.371   -52.118501 0.0015069391 
  228500       228500    367.95383   -17983.207    14.258406   -17968.949    45.241591 0.0015069391 
  229000       229000    342.96265   -17986.085    13.289985   -17972.795    -5.536695 0.0015069391 
  229500       229500     513.6736   -17986.155    19.905125    -17966.25   -29.346571 0.0015069391 
  230000       230000    568.09929   -17982.984    22.014149   -17960.969    54.946522 0.0015069391 
  230500       230500    518.79188   -17979.885    20.103461   -17959.781    26.084449 0.0015069391 
  231000       231000    441.35715   -17987.204    17.102824   -17970.101   -5.7704188 0.0015069391 
  231500       231500    310.56466   -17986.352    12.034545   -17974.318   -7.9741251 0.0015069391 
  232000       232000    274.59136   -17979.172    10.640561   -17968.531   -67.340891 0.0015069391 
  232500       232500    525.45203   -17985.337    20.361545   -17964.975    -46.11651 0.0015069391 
  233000       233000    432.50168   -17978.369     16.75967   -17961.609   -25.600243 0.0015069391 
  233500       233500    592.10691    -17985.43    22.944457   -17962.485    50.196381 0.0015069391 
  234000       234000    603.47148   -17986.112     23.38484   -17962.728   -38.515473 0.0015069391 
  234500       234500    432.18627   -17982.216    16.747447   -17965.468   -19.727176 0.0015069391 
  235000       235000    351.90763   -17984.191    13.636607   -17970.555    10.545023 0.0015069391 
  235500       235500    366.15115   -17978.322    14.188551   -17964.134     5.012933 0.0015069391 
  236000       236000    569.72533   -17982.074    22.077159   -17959.997    -70.76356 0.0015069391 
  236500       236500    541.20671    -17981.19    20.972047   -17960.218    20.256489 0.0015069391 
  237000       237000    541.83557   -17986.768    20.996416   -17965.772   -2.8386431 0.0015069391 
  237500       237500    463.64078   -17980.415    17.966326   -17962.449    54.142308 0.0015069391 
  238000       238000    562.22644   -17975.455    21.786573   -17953.669     1.154296 0.0015069391 
  238500       238500    495.35944   -17973.904    19.195441   -17954.708    41.882986 0.0015069391 
  239000       239000     623.9336   -17981.373    24.177758   -17957.196   -42.071489 0.0015069391 
  239500       239500    240.10621   -17984.552    9.3042432   -17975.248   -65.709242 0.0015069391 
  240000       240000    344.10091   -17977.861    13.334093   -17964.527   -13.053237 0.0015069391 
  240500       240500    582.49629   -17983.123     22.57204   -17960.551    28.175396 0.0015069391 
  241000       241000    623.94921   -17980.382    24.178363   -17956.203   -64.787204 0.0015069391 
  241500       241500    529.13745   -17986.991    20.504357   -17966.487   -16.352574 0.0015069391 
  242000       242000     483.7843   -17983.876    18.746898   -17965.129    48.002617 0.0015069391 
  242500       242500    521.93519   -17979.218    20.225266   -17958.993    76.532208 0.0015069391 
  243000       243000    610.99673   -17974.695    23.676448   -17951.018    -46.56619 0.0015069391 
  243500       243500    568.56197   -17973.566    22.032078   -17951.534   -23.361883 0.0015069391 
  244000       244000    428.54246   -17984.626    16.606248    -17968.02   -42.844872 0.0015069391 
  244500       244500    421.57303   -17981.042    16.336178   -17964.706   -11.429052 0.0015069391 
  245000       245000    553.73665   -17983.433    21.457589   -17961.976   -48.017962 0.0015069391 
  245500       245500    702.23427   -17982.457    27.211951   -17955.245   -15.324455 0.0015069391 
  246000       246000    690.09178   -17983.146    26.741423   -17956.404    53.201845 0.0015069391 
  246500       246500    532.58095   -17979.194    20.637794   -17958.556    -20.82156 0.0015069391 
  247000       247000    461.97354   -17988.854     17.90172   -17970.953    34.615558 0.0015069391 
  247500       247500    323.85673    -17985.12     12.54962    -17972.57   -6.6411802 0.0015069391 
  248000       248000    435.12594   -17982.041    16.861361    -17965.18    22.952113 0.0015069391 
  248500       248500    532.76001   -17977.667    20.644733   -17957.022   -29.097512 0.0015069391 
  249000       249000     633.8262   -17982.902    24.561102   -17958.341   -33.104714 0.0015069391 
  249500       249500    572.00036   -17984.849    22.165318   -17962.683   -12.234282 0.0015069391 
  250000       250000    463.43084   -17981.731    17.958191   -17963.773    33.234235 0.0015069391 
  250500       250500    423.06022   -17990.795    16.393808   -17974.402    10.468875 0.0015069391 
  251000       251000    409.09402   -17985.644     15.85261   -17969.791   -13.219035 0.0015069391 
  251500       251500    417.75894   -17976.168     16.18838    -17959.98   -5.1191173 0.0015069391 
  252000       252000    629.53979   -17985.063    24.395001   -17960.668    24.373078 0.0015069391 
  252500       252500    448.05853   -17990.187    17.362506   -17972.824    72.486414 0.0015069391 
  253000       253000     388.4325    -17984.26    15.051965   -17969.208  -0.02232289 0.0015069391 
  253500       253500    552.26876   -17979.283    21.400707   -17957.882   -7.4802269 0.0015069391 
  254000       254000    624.95042   -17982.775     24.21716   -17958.557   -0.6884098 0.0015069391 
  254500       254500    305.13081    -17989.33    11.823981   -17977.506   -34.254707 0.0015069391 
  255000       255000    546.18892   -17985.726    21.165111   -17964.561   -3.2959008 0.0015069391 
  255500       255500    727.35335   -17989.199    28.185328   -17961.013    28.629123 0.0015069391 
  256000       256000    495.58906   -17973.691    19.204339   -17954.486   -53.993556 0.0015069391 
  256500       256500    420.25626   -17979.117    16.285153   -17962.832   -79.003215 0.0015069391 
  257000       257000    376.21799   -17991.403    14.578647   -17976.825   -44.121819 0.0015069391 
  257500       257500    479.98545   -17980.248    18.599691   -17961.648   -57.412117 0.0015069391 
  258000       258000    518.58299   -17979.297    20.095366   -17959.202   -54.889153 0.0015069391 
  258500       258500    391.54805   -17984.248    15.172695   -17969.076   -22.043703 0.0015069391 
  259000       259000    254.60239   -17983.824    9.8659779   -17973.958   -31.635254 0.0015069391 
  259500       259500     453.4657   -17986.126    17.572037   -17968.554   -39.688006 0.0015069391 
  260000       260000    559.81859   -17985.343    21.693268   -17963.649   -9.4231254 0.0015069391 
  260500       260500    517.19755   -17983.875     20.04168   -17963.833   -37.754607 0.0015069391 
  261000       261000     455.7212   -17989.335    17.659438   -17971.676    63.461097 0.0015069391 
  261500       261500    481.07993   -17985.675    18.642102   -17967.033    -27.05417 0.0015069391 
  262000       262000    586.31304   -17980.473    22.719941   -17957.753    91.812308 0.0015069391 
  262500       262500    394.06307   -17977.457    15.270153   -17962.187    55.846114 0.0015069391 
  263000       263000    488.34371   -17986.201    18.923578   -17967.277   -27.449358 0.0015069391 
  263500       263500    505.08255   -17985.794    19.572217   -17966.222    20.447979 0.0015069391 
  264000       264000    473.68646   -17981.834    18.355602   -17963.478   -19.496894 0.0015069391 
  264500       264500    581.11584   -17980.299    22.518547   -17957.781   -72.905681 0.0015069391 
  265000       265000    495.08839   -17980.801    19.184938   -17961.616    45.267177 0.0015069391 
  265500       265500    406.47926    -17985.29    15.751287   -17969.539   -14.802156 0.0015069391 
  266000       266000    269.23638   -17983.906    10.433053   -17973.473    -6.441003 0.0015069391 
  266500       266500     537.0204   -17984.363    20.809825   -17963.553   -40.310602 0.0015069391 
  267000       267000    585.73698       -17979    22.697619   -17956.303   -57.769774 0.0015069391 
  267500       267500    532.47584   -17974.416    20.633721   -17953.782   -1.0052712 0.0015069391 
  268000       268000    749.91289   -17982.192    29.059522   -17953.133   -5.5617987 0.0015069391 
  268500       268500    496.32963   -17981.966    19.233037   -17962.733   -28.826433 0.0015069391 
  269000       269000    653.86009    -17989.79    25.337426   -17964.453     29.06062 0.0015069391 
  269500       269500    603.95888    -17982.66    23.403727   -17959.257   0.98123157 0.0015069391 
  270000       270000    745.41379     -17976.5     28.88518   -17947.615    58.131963 0.0015069391 
  270500       270500    488.91118    -17984.26    18.945568   -17965.315    2.3562158 0.0015069391 
  271000       271000     528.2902   -17988.104    20.471525   -17967.633    14.255298 0.0015069391 
  271500       271500    383.29784   -17982.749    14.852995   -17967.896    67.823125 0.0015069391 
  272000       272000    335.90193   -17972.626    13.016378    -17959.61    30.119212 0.0015069391 
  272500       272500     585.0523   -17986.349    22.671087   -17963.677    40.318086 0.0015069391 
  273000       273000    448.93812   -17985.866    17.396591   -17968.469    51.885177 0.0015069391 
  273500       273500    470.02489   -17984.336    18.213714   -17966.123   -18.748288 0.0015069391 
  274000       274000     560.6452   -17978.589    21.725299   -17956.863   -4.5156512 0.0015069391 
  274500       274500    473.71399   -17982.106    18.356669    -17963.75   -29.177462 0.0015069391 
  275000       275000    293.63625   -17980.891    11.378561   -17969.513   -5.2703549 0.0015069391 
  275500       275500    489.07644   -17990.559    18.951972   -17971.607   -26.275166 0.0015069391 
  276000       276000    592.13746   -17982.228    22.945641   -17959.282    32.005259 0.0015069391 
  276500       276500    512.33156   -17983.068     19.85312   -17963.215    7.4578539 0.0015069391 
  277000       277000    404.29739   -17986.358    15.666738   -17970.691    -69.83908 0.0015069391 
  277500       277500    546.11454   -17983.641    21.162228   -17962.479    5.9137992 0.0015069391 
  278000       278000    518.51624   -17980.094    20.092779   -17960.001    3.6697271 0.0015069391 
  278500       278500    437.11503    -17982.34     16.93844   -17965.402    16.208213 0.0015069391 
  279000       279000    544.39567   -17987.947    21.095621   -17966.851   -6.4563345 0.0015069391 
  279500       279500    471.57247   -17974.708    18.273684   -17956.435    10.484777 0.0015069391 
  280000       280000     631.6672   -17984.771    24.477439   -17960.294    37.019722 0.0015069391 
  280500       280500    448.75423   -17981.692    17.389465   -17964.303   -15.125826 0.0015069391 
  281000       281000    412.04758   -17989.115    15.967062   -17973.147    24.677633 0.0015069391 
  281500       281500    423.87936   -17983.125     16.42555     -17966.7    19.833413 0.0015069391 
  282000       282000    421.76975   -17975.851    16.343801   -17959.507   -24.016367 0.0015069391 
  282500       282500    519.50761   -17979.198    20.131196   -17959.067   -38.919738 0.0015069391 
  283000       283000    412.29196   -17979.713    15.976532   -17963.736   -39.919341 0.0015069391 
  283500       283500    494.05354   -17986.228    19.144837   -17967.083    -60.18318 0.0015069391 
  284000       284000    558.54135   -17986.507    21.643774   -17964.864    -10.31278 0.0015069391 
  284500       284500    583.85363   -17984.032    22.624638   -17961.407   -40.150627 0.0015069391 
  285000       285000    617.81284   -17975.067    23.940575   -17951.126   -37.937305 0.0015069391 
  285500       285500    652.52764   -17979.038    25.285792   -17953.752    34.044276 0.0015069391 
  286000       286000    564.43558   -17987.334    21.872178   -17965.462    77.290477 0.0015069391 
  286500       286500    394.52025   -17982.371    15.287869   -17967.083    -49.18316 0.0015069391 
  287000       287000    433.58021   -17988.146    16.801463   -17971.344    5.6741229 0.0015069391 
  287500       287500    439.14207   -17980.637    17.016988    -17963.62   -10.602604 0.0015069391 
  288000       288000    442.09225   -17977.458    17.131309   -17960.327    21.557957 0.0015069391 
  288500       288500    546.36515   -17982.696     21.17194   -17961.524   -88.255508 0.0015069391 
  289000       289000    344.90281   -17978.394    13.365167   -17965.029    33.691451 0.0015069391 
  289500       289500    441.96265   -17983.216    17.126287    -17966.09   -62.656012 0.0015069391 
  290000       290000    419.33328   -17979.806    16.249387   -17963.557   -59.478159 0.0015069391 
  290500       290500    480.12805   -17973.908    18.605217   -17955.302   -143.87199 0.0015069391 
  291000       291000    399.80623   -17976.606    15.492704   -17961.113   -36.135885 0.0015069391 
  291500       291500    470.43899   -17991.317    18.229761   -17973.087   -60.078813 0.0015069391 
  292000       292000    391.24183   -17987.112    15.160829   -17971.951    5.6345982 0.0015069391 
  292500       292500    613.08345   -17983.036    23.757309   -17959.278    -24.26502 0.0015069391 
  293000       293000    550.09819   -17977.126    21.316597    -17955.81    42.493243 0.0015069391 
  293500       293500     680.1963   -17975.617    26.357967   -17949.259    19.646445 0.0015069391 
  294000       294000    711.37828   -17977.996    27.566286    -17950.43    95.680677 0.0015069391 
  294500       294500    464.05519   -17981.607    17.982385   -17963.624    40.102608 0.0015069391 
  295000       295000    631.10764   -17990.914    24.455756   -17966.458   -1.6877603 0.0015069391 
  295500       295500    430.37973   -17982.151    16.677443   -17965.473   -43.312036 0.0015069391 
  296000       296000    544.35397   -17983.956    21.094005   -17962.862    27.609409 0.0015069391 
  296500       296500    675.39677   -17984.888    26.171983   -17958.716    2.4159154 0.0015069391 
  297000       297000    431.47285   -17979.253    16.719802   -17962.533    79.275974 0.0015069391 
  297500       297500    380.26144    -17985.88    14.735333   -17971.145   -2.1430449 0.0015069391 
  298000       298000    561.54299   -17989.493    21.760089   -17967.733     86.89093 0.0015069391 
  298500       298500    547.08966   -17986.946    21.200015   -17965.746    65.042537 0.0015069391 
  299000       299000    483.98393   -17976.884    18.754634    -17958.13    56.602924 0.0015069391 
  299500       299500    650.06824   -17976.245    25.190489   -17951.055    115.63373 0.0015069391 
  300000       300000    607.10468   -17980.891    23.525629   -17957.366    86.830606 0.0015069391 
  300500       300500    285.31142   -17976.484    11.055969   -17965.428   -10.314643 0.0015069391 
  301000       301000    419.55391    -17984.66    16.257937   -17968.402     43.97019 0.0015069391 
  301500       301500     418.5952   -17985.609    16.220786   -17969.388   -73.268668 0.0015069391 
  302000       302000    412.99828   -17977.602    16.003903   -17961.598   -12.042662 0.0015069391 
  302500       302500    429.39084   -17976.536    16.639123   -17959.897   -106.98185 0.0015069391 
  303000       303000    508.78153   -17983.552    19.715554   -17963.836    7.5564741 0.0015069391 
  303500       303500    293.96581   -17986.412    11.391331   -17975.021     11.59355 0.0015069391 
  304000       304000    582.02643   -17986.911    22.553833   -17964.357    74.285422 0.0015069391 
  304500       304500    425.20703   -17973.254    16.476998   -17956.777   -41.328324 0.0015069391 
  305000       305000    444.39039   -17974.285    17.220363   -17957.065   -54.622157 0.0015069391 
  305500       305500    476.39725   -17980.028    18.460646   -17961.568    57.036319 0.0015069391 
  306000       306000    507.10673    -17986.27    19.650655   -17966.619   -3.0605737 0.0015069391 
  306500       306500    462.68474   -17982.349    17.929279   -17964.419   -96.164566 0.0015069391 
  307000       307000    477.58214   -17981.743    18.506561   -17963.237    23.548447 0.0015069391 
  307500       307500    683.96621   -17979.821    26.504053   -17953.317    13.154764 0.0015069391 
  308000       308000    567.57699   -17972.411     21.99391   -17950.417    22.688432 0.0015069391 
  308500       308500    537.58733   -17975.329    20.831794   -17954.498     53.88483 0.0015069391 
  309000       309000    424.28495   -17980.159    16.441267   -17963.717   -77.707521 0.0015069391 
  309500       309500    470.65546   -17982.133    18.238149   -17963.895    96.368558 0.0015069391 
  310000       310000    494.16441   -17977.549    19.149133     -17958.4    6.3087169 0.0015069391 
  310500       310500    429.78309   -17976.816    16.654323   -17960.162    31.602897 0.0015069391 
  311000       311000    460.03482   -17985.037    17.826593    -17967.21     93.77277 0.0015069391 
  311500       311500    630.28654   -17989.273    24.423938   -17964.849   -31.052461 0.0015069391 
  312000       312000    527.98833   -17978.576    20.459828   -17958.116   -57.714089 0.0015069391 
  312500       312500    465.92509   -17980.156    18.054844   -17962.101   -74.437272 0.0015069391 
  313000       313000    416.90416   -17981.314    16.155257   -17965.158 -0.038228057 0.0015069391 
  313500       313500    440.06771   -17986.582    17.052857   -17969.529   -57.631472 0.0015069391 
  314000       314000    600.06458   -17983.839    23.252821   -17960.586    104.08488 0.0015069391 
  314500       314500    367.22214   -17977.853    14.230053   -17963.622   -53.492848 0.0015069391 
  315000       315000    344.22235   -17985.677    13.338799   -17972.338   -18.342126 0.0015069391 
  315500       315500     543.2059   -17978.446    21.049517   -17957.396   -65.439228 0.0015069391 
  316000       316000     523.0763   -17981.176    20.269484   -17960.907    18.218202 0.0015069391 
  316500       316500    306.72749   -17981.157    11.885853   -17969.271   -44.240955 0.0015069391 
  317000       317000    269.87348   -17983.403    10.457741   -17972.945   -7.8022604 0.0015069391 
  317500       317500    428.70126   -17975.056    16.612401   -17958.444   -66.079259 0.0015069391 
  318000       318000    516.95828    -17984.71    20.032408   -17964.678    75.772191 0.0015069391 
  318500       318500    257.26087    -17979.87    9.9689951   -17969.901   -15.869614 0.0015069391 
  319000       319000    492.20318   -17982.205    19.073134   -17963.132    50.449917 0.0015069391 
  319500       319500      503.264   -17975.525    19.501747   -17956.023   -74.560623 0.0015069391 
  320000       320000    633.02246   -17976.676    24.529956   -17952.146    5.3958539 0.0015069391 
  320500       320500    704.40215   -17978.721    27.295957   -17951.425    3.2175508 0.0015069391 
  321000       321000    429.78262    -17979.37    16.654304   -17962.716   -21.776645 0.0015069391 
  321500       321500    577.17552   -17987.481    22.365858   -17965.115   -77.006779 0.0015069391 
  322000       322000     512.8785   -17987.522    19.874314   -17967.648    125.04256 0.0015069391 
  322500       322500    487.40447   -17985.014    18.887182   -17966.126    34.927354 0.0015069391 
  323000       323000    611.14965   -17985.127    23.682373   -17961.445   -23.639217 0.0015069391 
  323500       323500    638.87456   -17983.625    24.756728   -17958.869    22.663275 0.0015069391 
  324000       324000    539.46454    -17983.61    20.904537   -17962.705    44.133444 0.0015069391 
  324500       324500    321.28468   -17985.045    12.449952   -17972.595    -3.778725 0.0015069391 
  325000       325000    333.52112   -17983.242     12.92412   -17970.318   -75.874193 0.0015069391 
  325500       325500    449.81821    -17978.11    17.430694   -17960.679    96.640673 0.0015069391 
  326000       326000    509.79458   -17977.764    19.754811   -17958.009    62.790872 0.0015069391 
  326500       326500    600.87306    -17978.99     23.28415   -17955.705   -123.22603 0.0015069391 
  327000       327000    629.15234   -17972.322    24.379987   -17947.942  -0.39301463 0.0015069391 
  327500       327500    685.61999   -17980.132    26.568138   -17953.564   -36.263462 0.0015069391 
  328000       328000    467.54491    -17981.71    18.117613   -17963.592    104.08687 0.0015069391 
  328500       328500    372.46281   -17985.727    14.433132   -17971.294    66.963218 0.0015069391 
  329000       329000    539.30038   -17986.949    20.898176   -17966.051   -14.379761 0.0015069391 
  329500       329500    384.34496   -17983.244    14.893571    -17968.35    22.439383 0.0015069391 
  330000       330000    443.20907   -17983.303    17.174587   -17966.129   -37.192833 0.0015069391 
  330500       330500    520.37487   -17984.059    20.164803   -17963.895   -46.269722 0.0015069391 
  331000       331000    424.78128   -17984.774      16.4605   -17968.313     4.541832 0.0015069391 
  331500       331500    395.16819   -17987.068    15.312977   -17971.755   -33.967869 0.0015069391 
  332000       332000      460.742   -17984.098    17.853997   -17966.244    81.662158 0.0015069391 
  332500       332500    715.52164   -17985.907    27.726843    -17958.18    23.761127 0.0015069391 
  333000       333000    443.29831   -17979.404    17.178045   -17962.226   -4.8945025 0.0015069391 
  333500       333500    235.13513   -17980.614    9.1116111   -17971.502   0.36327976 0.0015069391 
  334000       334000     337.2604   -17984.722    13.069019   -17971.653    30.983689 0.0015069391 
  334500       334500    527.76487   -17982.668    20.451169   -17962.217   -6.6695187 0.0015069391 
  335000       335000    524.86673   -17976.257    20.338864   -17955.918   -16.277051 0.0015069391 
  335500       335500    560.79717   -17973.787    21.731188   -17952.055    58.601795 0.0015069391 
  336000       336000    632.46488   -17975.242     24.50835   -17950.734    85.624697 0.0015069391 
  336500       336500    452.71439   -17981.476    17.542923   -17963.933   -6.6085848 0.0015069391 
  337000       337000    415.41239   -17980.243    16.097451   -17964.145   -22.969067 0.0015069391 
  337500       337500    655.08906   -17987.058    25.385049   -17961.673   -42.804274 0.0015069391 
  338000       338000    727.48594   -17980.121    28.190466   -17951.931    59.443643 0.0015069391 
  338500       338500    490.99043   -17975.663     19.02614   -17956.637   -25.898518 0.0015069391 
  339000       339000    562.91314   -17982.163    21.813183    -17960.35    59.488034 0.0015069391 
  339500       339500    481.09546   -17983.939    18.642704   -17965.297    -27.48866 0.0015069391 
  340000       340000    438.85151   -17983.939    17.005729   -17966.933    4.6875884 0.0015069391 
  340500       340500    574.57334   -17982.458    22.265022   -17960.193   -56.095557 0.0015069391 
  341000       341000    600.84521   -17981.596    23.283071   -17958.313    15.360347 0.0015069391 
  341500       341500    336.77474   -17980.188      13.0502   -17967.137   -37.728246 0.0015069391 
  342000       342000    529.78393   -17984.011    20.529408   -17963.482    -17.40356 0.0015069391 
  342500       342500    539.71202   -17978.711    20.914127   -17957.797    52.712659 0.0015069391 
  343000       343000    476.36132   -17977.386    18.459254   -17958.926    1.5241858 0.0015069391 
  343500       343500    509.48437    -17982.54     19.74279   -17962.797    18.163168 0.0015069391 
  344000       344000    412.42909   -17981.753    15.981846   -17965.771   -21.910915 0.0015069391 
  344500       344500    383.27449   -17980.767     14.85209   -17965.915    12.303096 0.0015069391 
  345000       345000    413.89653   -17979.917     16.03871   -17963.879   -6.8814961 0.0015069391 
  345500       345500    666.39267   -17985.588     25.82307   -17959.765    39.056301 0.0015069391 
  346000       346000    689.20649   -17972.106    26.707117   -17945.399   -38.231776 0.0015069391 
  346500       346500    481.05102   -17985.812    18.640982   -17967.171   -23.931701 0.0015069391 
  347000       347000    546.27811   -17989.112    21.168567   -17967.943    6.7955491 0.0015069391 
  347500       347500    407.41392   -17986.706    15.787506   -17970.919    67.018856 0.0015069391 
  348000       348000    596.92669   -17986.095    23.131226   -17962.963   -33.034151 0.0015069391 
  348500       348500    512.19207    -17979.13    19.847715   -17959.282   -66.378458 0.0015069391 
  349000       349000    420.92499   -17981.876    16.311067   -17965.565    8.8644553 0.0015069391 
  349500       349500    437.97726   -17980.377    16.971851   -17963.405    30.606232 0.0015069391 
  350000       350000     619.7873   -17986.991    24.017087   -17962.974    32.624021 0.0015069391 
  350500       350500    554.10719   -17982.423    21.471947   -17960.951   -27.999175 0.0015069391 
  351000       351000    464.22464   -17986.878    17.988951   -17968.889    15.728108 0.0015069391 
  351500       351500    350.24555     -17981.8    13.572201   -17968.228    19.670045 0.0015069391 
  352000       352000    455.08786   -17984.149    17.634896   -17966.514    6.8846932 0.0015069391 
  352500       352500    692.90248   -17990.084    26.850339   -17963.234    48.444767 0.0015069391 
  353000       353000    567.07732   -17978.586    21.974547   -17956.612   -85.491278 0.0015069391 
  353500       353500    427.31611   -17972.157    16.558726   -17955.598   -45.477755 0.0015069391 
  354000       354000    646.75307   -17981.127    25.062025   -17956.065   -97.084923 0.0015069391 
  354500       354500    463.36036   -17980.943     17.95546   -17962.988    60.342769 0.0015069391 
  355000       355000    586.55716   -17986.905    22.729401   -17964.176    20.891745 0.0015069391 
  355500       355500    470.39849   -17977.179    18.228191   -17958.951   -106.53101 0.0015069391 
  356000       356000    603.18217   -17971.282    23.373629   -17947.908    19.806551 0.0015069391 
  356500       356500    833.34876   -17988.158    32.292707   -17955.866    37.648517 0.0015069391 
  357000       357000    391.14268   -17973.663    15.156987   -17958.506   -2.0799089 0.0015069391 
  357500       357500    663.68921   -17981.073    25.718309   -17955.355   -5.7265032 0.0015069391 
  358000       358000    635.02891   -17982.784    24.607707   -17958.176    14.778819 0.0015069391 
  358500       358500    406.09915   -17982.736    15.736558   -17966.999    11.862184 0.0015069391 
  359000       359000    462.11749   -17983.888    17.907298   -17965.981   -57.167407 0.0015069391 
  359500       359500    662.20859   -17986.694    25.660934   -17961.033    7.5223567 0.0015069391 
  360000       360000    519.58325   -17975.632    20.134127   -17955.497     20.74675 0.0015069391 
  360500       360500    659.85532   -17987.776    25.569744   -17962.206     19.91976 0.0015069391 
  361000       361000    571.55453   -17984.227    22.148041   -17962.079    4.3371443 0.0015069391 
  361500       361500    328.83856   -17989.031    12.742669   -17976.288   -23.876151 0.0015069391 
  362000       362000    426.75643   -17982.965    16.537038   -17966.428   -2.4687063 0.0015069391 
  362500       362500    370.96659   -17976.906    14.375152   -17962.531    61.591461 0.0015069391 
  363000       363000    740.61955   -17985.916      28.6994   -17957.217    28.962083 0.0015069391 
  363500       363500    726.78516   -17986.436    28.163311   -17958.273   -28.406511 0.0015069391 
  364000       364000    460.65539     -17983.3    17.850641   -17965.449   -32.382723 0.0015069391 
  364500       364500    462.91993    -17983.55    17.938393   -17965.612   -6.3273855 0.0015069391 
  365000       365000    504.30136   -17984.549    19.541945   -17965.007    -21.78241 0.0015069391 
  365500       365500    684.10041   -17984.817    26.509254   -17958.307    100.90165 0.0015069391 
  366000       366000    478.08232   -17979.926    18.525944     -17961.4     41.80786 0.0015069391 
  366500       366500    479.73082   -17978.337    18.589824   -17959.748   -11.228284 0.0015069391 
  367000       367000    645.95828   -17985.029    25.031226   -17959.997    88.831922 0.0015069391 
  367500       367500    444.78116   -17981.884    17.235506   -17964.648     52.88228 0.0015069391 
  368000       368000    366.06351   -17985.456    14.185155   -17971.271   -49.177931 0.0015069391 
  368500       368500    348.19801   -17983.213    13.492858    -17969.72    11.645237 0.0015069391 
  369000       369000    442.79645   -17978.713    17.158597   -17961.555    39.486875 0.0015069391 
  369500       369500    378.54728   -17972.628    14.668908   -17957.959    60.396936 0.0015069391 
  370000       370000    514.09524   -17981.544    19.921463   -17961.622    36.855038 0.0015069391 
  370500       370500    271.23009   -17985.721     10.51031   -17975.211   -14.927535 0.0015069391 
  371000       371000    300.68271    -17973.59    11.651615   -17961.938   -22.613616 0.0015069391 
  371500       371500    429.96292   -17973.472    16.661291   -17956.811    1.1501737 0.0015069391 
  372000       372000    441.02641   -17969.269    17.090008   -17952.179   -47.831344 0.0015069391 
  372500       372500    785.78821     -17977.1     30.44971    -17946.65   0.72508239 0.0015069391 
  373000       373000    505.73696   -17983.194    19.597576   -17963.597   -34.664875 0.0015069391 
  373500       373500    429.24604   -17981.957    16.633512   -17965.324   -34.426354 0.0015069391 
  374000       374000    516.87001   -17988.974    20.028987   -17968.945   -15.078081 0.0015069391 
  374500       374500    445.05079   -17984.306    17.245954    -17967.06    26.832141 0.0015069391 
  375000       375000    496.90593   -17983.786    19.255368    -17964.53   -33.653482 0.0015069391 
  375500       375500    538.65617   -17985.433    20.873213   -17964.559   -21.498596 0.0015069391 
  376000       376000     403.7959   -17976.814    15.647305   -17961.167    41.101042 0.0015069391 
  376500       376500    729.20657   -17980.591    28.257142   -17952.334   -64.186812 0.0015069391 
[...]
 1908000      1908000     465.3766   -17983.509     18.03359   -17965.476   -2.8869539 0.0015069391 
 1908500      1908500     491.1898   -17982.624    19.033865    -17963.59     52.02123 0.0015069391 
 1909000      1909000    407.60422   -17985.315     15.79488    -17969.52   -35.972539 0.0015069391 
 1909500      1909500    469.35053   -17986.747    18.187582   -17968.559    23.934584 0.0015069391 
 1910000      1910000    486.18953   -17984.071    18.840102   -17965.231   -44.243988 0.0015069391 
 1910500      1910500    816.51419   -17979.132    31.640358   -17947.492    28.155324 0.0015069391 
 1911000      1911000    495.23804   -17974.466    19.190737   -17955.275   -5.3471578 0.0015069391 
 1911500      1911500    598.82211   -17984.217    23.204674   -17961.012   -18.948953 0.0015069391 
 1912000      1912000     470.3007   -17983.858    18.224402   -17965.634   -9.6355813 0.0015069391 
 1912500      1912500    404.58576   -17980.602    15.677913   -17964.924    2.9549377 0.0015069391 
 1913000      1913000    519.72808    -17989.65    20.139739    -17969.51   -9.7213315 0.0015069391 
 1913500      1913500    394.19405   -17976.379    15.275229   -17961.104   -3.7843747 0.0015069391 
 1914000      1914000    522.95858   -17974.701    20.264922   -17954.436    40.233607 0.0015069391 
 1914500      1914500     623.5458   -17979.893    24.162731    -17955.73    8.7435038 0.0015069391 
 1915000      1915000    521.90864   -17985.089    20.224237   -17964.864   -9.1966368 0.0015069391 
 1915500      1915500    381.90618   -17982.718    14.799067   -17967.919    47.336969 0.0015069391 
 1916000      1916000    254.93039   -17980.896    9.8786879   -17971.017   -25.420663 0.0015069391 
 1916500      1916500    389.68086   -17985.001     15.10034   -17969.901   -59.015113 0.0015069391 
 1917000      1917000    564.14083   -17981.788    21.860757   -17959.927   -41.065962 0.0015069391 
 1917500      1917500     703.0234   -17990.079     27.24253   -17962.837    -18.84966 0.0015069391 
 1918000      1918000     412.5833    -17987.29    15.987822   -17971.302   -48.023204 0.0015069391 
 1918500      1918500    511.05669   -17988.356    19.803718   -17968.552    3.1137271 0.0015069391 
 1919000      1919000    537.81791   -17979.731    20.840729    -17958.89    88.599844 0.0015069391 
 1919500      1919500    495.49048   -17983.836    19.200519   -17964.636   -24.763803 0.0015069391 
 1920000      1920000    439.63509   -17987.655    17.036093   -17970.619   -26.978958 0.0015069391 
 1920500      1920500    599.92463   -17988.918    23.247398   -17965.671   -14.838308 0.0015069391 
 1921000      1921000     306.3332   -17974.408    11.870574   -17962.538    42.617132 0.0015069391 
 1921500      1921500    728.17254   -17982.048    28.217072   -17953.831   -89.147613 0.0015069391 
 1922000      1922000    430.72601   -17974.115    16.690862   -17957.425   -7.9830418 0.0015069391 
 1922500      1922500    545.91993   -17989.723    21.154687   -17968.568    12.124975 0.0015069391 
 1923000      1923000    421.61452   -17983.122    16.337787   -17966.784   -20.818965 0.0015069391 
 1923500      1923500    646.58916   -17985.383    25.055673   -17960.328    9.9397753 0.0015069391 
 1924000      1924000    713.02707   -17987.524    27.630177   -17959.894    30.604381 0.0015069391 
 1924500      1924500    404.80152   -17980.812    15.686274   -17965.126   -24.167019 0.0015069391 
 1925000      1925000    350.47006   -17984.733    13.580901   -17971.152    15.390328 0.0015069391 
 1925500      1925500    373.55127   -17981.115     14.47531   -17966.639    21.841979 0.0015069391 
 1926000      1926000    525.40464    -17985.72    20.359709    -17965.36    26.767271 0.0015069391 
 1926500      1926500    560.72379   -17981.825    21.728344   -17960.097    29.376471 0.0015069391 
 1927000      1927000    502.23356   -17973.232    19.461817    -17953.77   -30.268928 0.0015069391 
 1927500      1927500    507.08212   -17970.698    19.649701   -17951.048    25.147794 0.0015069391 
 1928000      1928000    597.12902   -17983.947    23.139066   -17960.808    11.835807 0.0015069391 
 1928500      1928500    642.01805    -17991.67     24.87854   -17966.792   -17.209295 0.0015069391 
 1929000      1929000    315.26467   -17981.958    12.216673   -17969.741    61.184595 0.0015069391 
 1929500      1929500    314.16142   -17986.149    12.173922   -17973.975   -11.504394 0.0015069391 
 1930000      1930000    349.67953   -17985.563    13.550268   -17972.013    7.6373141 0.0015069391 
 1930500      1930500    455.28113    -17979.52    17.642386   -17961.878   -27.946598 0.0015069391 
 1931000      1931000    609.35722   -17984.686    23.612916   -17961.073    -23.91799 0.0015069391 
 1931500      1931500    341.34724   -17982.028    13.227387   -17968.801   -62.378957 0.0015069391 
 1932000      1932000    289.45908   -17984.117    11.216693   -17972.901    65.282275 0.0015069391 
 1932500      1932500    565.45876   -17992.387    21.911827   -17970.475    44.821995 0.0015069391 
 1933000      1933000    510.80752   -17987.541    19.794062   -17967.747    22.696278 0.0015069391 
 1933500      1933500    387.13393   -17975.926    15.001645   -17960.924    -41.89349 0.0015069391 
 1934000      1934000    652.54291   -17980.291    25.286384   -17955.004    70.467609 0.0015069391 
 1934500      1934500    591.64694   -17985.317    22.926633    -17962.39   -1.0969995 0.0015069391 
 1935000      1935000    349.89547   -17984.806    13.558635   -17971.247    15.331194 0.0015069391 
 1935500      1935500    493.88404   -17987.338    19.138269   -17968.199    15.649023 0.0015069391 
 1936000      1936000    327.38727    -17978.56     12.68643   -17965.873    15.383501 0.0015069391 
 1936500      1936500    675.85459   -17985.629    26.189724    -17959.44    50.250574 0.0015069391 
 1937000      1937000    446.89384   -17968.392    17.317373   -17951.075   -14.428118 0.0015069391 
 1937500      1937500    848.06094   -17987.188    32.862812   -17954.325    38.295597 0.0015069391 
 1938000      1938000    414.22809   -17982.261    16.051558   -17966.209    17.544196 0.0015069391 
 1938500      1938500    474.74738    -17988.22    18.396713   -17969.824     35.18458 0.0015069391 
 1939000      1939000     450.6436   -17980.584    17.462679   -17963.121     5.279466 0.0015069391 
 1939500      1939500    467.80586   -17980.145    18.127725   -17962.017    22.368102 0.0015069391 
 1940000      1940000    672.22389   -17985.748    26.049033   -17959.699    3.8401859 0.0015069391 
 1940500      1940500    480.94332    -17985.12    18.636809   -17966.483   -89.664961 0.0015069391 
 1941000      1941000    420.74846   -17983.658    16.304226   -17967.354    16.087978 0.0015069391 
 1941500      1941500    512.12058   -17978.908    19.844944   -17959.063   -9.9519941 0.0015069391 
 1942000      1942000    365.19228   -17988.091    14.151395    -17973.94   -4.3062518 0.0015069391 
 1942500      1942500    371.96186   -17987.841    14.413719   -17973.427    48.236136 0.0015069391 
 1943000      1943000    460.18422    -17984.72    17.832383   -17966.888       37.549 0.0015069391 
 1943500      1943500    589.87793   -17983.304    22.858083   -17960.446     8.067663 0.0015069391 
 1944000      1944000    550.95392   -17984.373    21.349757   -17963.024   -31.101684 0.0015069391 
 1944500      1944500    352.25437   -17984.201    13.650044   -17970.551   -20.363302 0.0015069391 
 1945000      1945000    497.62228   -17985.636    19.283127   -17966.353   -56.168065 0.0015069391 
 1945500      1945500    539.60152    -17983.86    20.909845    -17962.95    77.497626 0.0015069391 
 1946000      1946000    638.12157   -17980.043    24.727549   -17955.315    32.921938 0.0015069391 
 1946500      1946500    741.36286   -17980.135    28.728204   -17951.407   -44.208047 0.0015069391 
 1947000      1947000    536.13679   -17979.065    20.775585   -17958.289    -61.88085 0.0015069391 
 1947500      1947500    566.16033   -17985.043    21.939013   -17963.104   -43.531378 0.0015069391 
 1948000      1948000    504.62825   -17987.273    19.554612   -17967.719       35.225 0.0015069391 
 1948500      1948500    408.34668   -17989.519     15.82365   -17973.696    59.242674 0.0015069391 
 1949000      1949000    314.26324   -17983.548    12.177867    -17971.37    36.990886 0.0015069391 
 1949500      1949500    545.78174   -17982.894    21.149332   -17961.745   -3.9589858 0.0015069391 
 1950000      1950000    413.02128   -17974.803    16.004794   -17958.798  -0.95545088 0.0015069391 
 1950500      1950500    337.32993   -17992.484    13.071714   -17979.412    39.048703 0.0015069391 
 1951000      1951000    375.15451   -17981.093    14.537436   -17966.555    25.639005 0.0015069391 
 1951500      1951500    533.67732   -17983.884    20.680279   -17963.204   -7.5779318 0.0015069391 
 1952000      1952000    594.54891   -17982.214    23.039086   -17959.175    38.169125 0.0015069391 
 1952500      1952500    572.91278   -17984.125    22.200674   -17961.924    17.564775 0.0015069391 
 1953000      1953000     389.6125    -17982.33    15.097691   -17967.232   -34.240621 0.0015069391 
 1953500      1953500    378.04561   -17985.028    14.649468   -17970.378   -32.669331 0.0015069391 
 1954000      1954000    385.83577   -17976.403    14.951341   -17961.452    2.7994932 0.0015069391 
 1954500      1954500    498.63346   -17969.007    19.322311   -17949.684    29.653881 0.0015069391 
 1955000      1955000    623.72227   -17982.851    24.169569   -17958.682    39.638426 0.0015069391 
 1955500      1955500    478.02794   -17982.808    18.523836   -17964.285   -12.121818 0.0015069391 
 1956000      1956000     375.8865   -17983.446    14.565801    -17968.88    23.258729 0.0015069391 
 1956500      1956500    405.47586   -17982.792    15.712405    -17967.08   -32.837749 0.0015069391 
 1957000      1957000     557.1728    -17985.94    21.590742   -17964.349   -75.670272 0.0015069391 
 1957500      1957500    546.15149   -17974.236     21.16366   -17953.073   -21.531876 0.0015069391 
 1958000      1958000    697.64756   -17979.367    27.034213   -17952.333   -32.173525 0.0015069391 
 1958500      1958500    494.99238   -17978.447    19.181217   -17959.265   -4.6093087 0.0015069391 
 1959000      1959000    548.81135   -17982.469    21.266731   -17961.202   -24.953741 0.0015069391 
 1959500      1959500    503.04769   -17985.592    19.493365   -17966.098    5.6826151 0.0015069391 
 1960000      1960000     578.1625   -17987.742    22.404103   -17965.338   -34.609036 0.0015069391 
 1960500      1960500    488.00859   -17989.966    18.910592   -17971.055    13.984243 0.0015069391 
 1961000      1961000    494.90838   -17987.183    19.177962   -17968.005    6.1251431 0.0015069391 
 1961500      1961500    517.98812   -17982.259    20.072314   -17962.187    18.583261 0.0015069391 
 1962000      1962000    613.88323   -17971.588    23.788301   -17947.799   -42.091105 0.0015069391 
 1962500      1962500    444.18402   -17971.221    17.212367   -17954.009    38.281274 0.0015069391 
 1963000      1963000    611.44932   -17983.273    23.693986   -17959.579    58.265604 0.0015069391 
 1963500      1963500    375.28115   -17980.199    14.542344   -17965.657   -11.389562 0.0015069391 
 1964000      1964000    744.08196   -17984.565    28.833571   -17955.732   -18.221744 0.0015069391 
 1964500      1964500    444.06261   -17977.605    17.207662   -17960.397   0.34769784 0.0015069391 
 1965000      1965000    543.68286   -17985.993    21.067999   -17964.925    6.1231017 0.0015069391 
 1965500      1965500    365.83201   -17990.721    14.176185   -17976.545   -68.692755 0.0015069391 
 1966000      1966000    561.45254   -17978.896    21.756584   -17957.139   -79.265975 0.0015069391 
 1966500      1966500    628.96887   -17986.679    24.372878   -17962.306   -26.655538 0.0015069391 
 1967000      1967000    416.60387   -17992.037    16.143621   -17975.893   -4.9655317 0.0015069391 
 1967500      1967500    540.52261   -17985.067    20.945538   -17964.121    5.8204901 0.0015069391 
 1968000      1968000    382.98522   -17973.182     14.84088   -17958.341    20.787443 0.0015069391 
 1968500      1968500    309.77589   -17984.419     12.00398   -17972.415   -50.814402 0.0015069391 
 1969000      1969000    449.75029   -17987.863    17.428062   -17970.435    14.469495 0.0015069391 
 1969500      1969500    486.63526   -17981.278    18.857375   -17962.421    31.081909 0.0015069391 
 1970000      1970000    625.13773   -17982.225    24.224419       -17958    62.256601 0.0015069391 
 1970500      1970500    430.67011     -17981.1    16.688695   -17964.412   -46.851041 0.0015069391 
 1971000      1971000    371.49497   -17984.783    14.395627   -17970.387    28.312389 0.0015069391 
 1971500      1971500    455.84574   -17983.677    17.664264   -17966.013   -41.079378 0.0015069391 
 1972000      1972000    663.30692   -17982.584    25.703495    -17956.88   -62.474315 0.0015069391 
 1972500      1972500    555.90631   -17983.983    21.541665   -17962.441   -103.30466 0.0015069391 
 1973000      1973000    449.32259   -17986.715    17.411489   -17969.304    -51.13508 0.0015069391 
 1973500      1973500    385.82271   -17989.356    14.950835   -17974.405    5.2219163 0.0015069391 
 1974000      1974000    382.75969   -17980.468    14.832141   -17965.636     16.07046 0.0015069391 
 1974500      1974500     597.7036   -17981.748    23.161332   -17958.587    8.2337305 0.0015069391 
 1975000      1975000    580.73686   -17978.928    22.503861   -17956.425  -0.70683938 0.0015069391 
 1975500      1975500    565.43027   -17974.837    21.910723   -17952.927   -85.005908 0.0015069391 
 1976000      1976000    571.78101   -17982.725    22.156817   -17960.568   -42.395681 0.0015069391 
 1976500      1976500    444.08951   -17983.109    17.208704     -17965.9   -39.862679 0.0015069391 
 1977000      1977000     467.4234   -17984.546    18.112905   -17966.433   -9.9998268 0.0015069391 
 1977500      1977500    489.04336   -17985.354     18.95069   -17966.404   -26.104117 0.0015069391 
 1978000      1978000    452.37406    -17981.69    17.529735   -17964.161    81.310819 0.0015069391 
 1978500      1978500    390.65215   -17974.395    15.137978   -17959.257   0.81852175 0.0015069391 
 1979000      1979000    376.60902   -17981.967    14.593799   -17967.374    39.809951 0.0015069391 
 1979500      1979500    454.07639   -17987.538    17.595701   -17969.942    36.313068 0.0015069391 
 1980000      1980000    454.79664    -17989.48    17.623611   -17971.857   -9.0308085 0.0015069391 
 1980500      1980500      491.685   -17983.267    19.053055   -17964.214   -3.0945045 0.0015069391 
 1981000      1981000    502.66714   -17984.785    19.478618   -17965.306   -33.425608 0.0015069391 
 1981500      1981500     465.0997   -17990.202     18.02286   -17972.179    6.8915713 0.0015069391 
 1982000      1982000    336.19683   -17980.178    13.027806    -17967.15    26.636395 0.0015069391 
 1982500      1982500    522.73236   -17986.413    20.256156   -17966.157   -2.4541497 0.0015069391 
 1983000      1983000     623.0795   -17980.175    24.144661    -17956.03    50.416913 0.0015069391 
 1983500      1983500    740.63999   -17977.879    28.700193   -17949.179   -49.219035 0.0015069391 
 1984000      1984000    741.74509   -17983.688    28.743016   -17954.945   -19.641259 0.0015069391 
 1984500      1984500    482.04765   -17976.113    18.679602   -17957.434   -57.259209 0.0015069391 
 1985000      1985000    440.19907   -17986.674    17.057948   -17969.616    16.123703 0.0015069391 
 1985500      1985500    603.56483   -17985.222    23.388457   -17961.834   -50.901347 0.0015069391 
 1986000      1986000    571.91592   -17981.192    22.162045    -17959.03   -41.574841 0.0015069391 
 1986500      1986500    598.80406   -17986.583    23.203975   -17963.379    19.172832 0.0015069391 
 1987000      1987000    404.95666   -17982.802    15.692285    -17967.11   -41.649418 0.0015069391 
 1987500      1987500    420.92721   -17982.838    16.311153   -17966.527   -2.8409358 0.0015069391 
 1988000      1988000    372.77499   -17983.682    14.445229   -17969.236   -29.763322 0.0015069391 
 1988500      1988500    392.63213   -17987.952    15.214703   -17972.737    53.362181 0.0015069391 
 1989000      1989000    437.96542   -17983.057    16.971392   -17966.085     17.89585 0.0015069391 
 1989500      1989500    534.24575    -17981.69    20.702306   -17960.988    36.122499 0.0015069391 
 1990000      1990000    511.67936   -17979.585    19.827847   -17959.758   -53.228262 0.0015069391 
 1990500      1990500    257.38994   -17988.054    9.9739967    -17978.08    41.333378 0.0015069391 
 1991000      1991000    519.43267    -17985.32    20.128291   -17965.192    58.130105 0.0015069391 
 1991500      1991500    390.33199   -17977.377    15.125572   -17962.251    121.78268 0.0015069391 
 1992000      1992000    620.31328   -17984.965    24.037469   -17960.927     5.195999 0.0015069391 
 1992500      1992500    520.09552   -17976.225    20.153978   -17956.071   -37.641107 0.0015069391 
 1993000      1993000     512.1808   -17977.343    19.847278   -17957.496    13.284602 0.0015069391 
 1993500      1993500    452.21261   -17989.333    17.523479    -17971.81    19.456748 0.0015069391 
 1994000      1994000    454.90646   -17980.339    17.627867   -17962.711   -26.136894 0.0015069391 
 1994500      1994500    562.81326    -17982.06    21.809312   -17960.251   -21.458342 0.0015069391 
 1995000      1995000     474.2721   -17984.059    18.378296   -17965.681    4.4588112 0.0015069391 
 1995500      1995500    577.31433    -17986.58    22.371237   -17964.209   -55.919479 0.0015069391 
 1996000      1996000    530.96528   -17982.871    20.575186   -17962.296   -9.5052931 0.0015069391 
 1996500      1996500    588.03312   -17982.212    22.786596   -17959.425   -29.042827 0.0015069391 
 1997000      1997000    517.60597   -17975.626    20.057506   -17955.569   -62.567992 0.0015069391 
 1997500      1997500    715.92359   -17973.844    27.742419   -17946.102   -62.645476 0.0015069391 
 1998000      1998000    537.24857   -17986.761    20.818667   -17965.943    20.223025 0.0015069391 
 1998500      1998500     409.8729   -17981.673    15.882792    -17965.79   -6.2555579 0.0015069391 
 1999000      1999000    415.20636   -17979.654    16.089467   -17963.564   -45.540806 0.0015069391 
 1999500      1999500    713.76133   -17981.815     27.65863   -17954.157   -36.482473 0.0015069391 
 2000000      2000000    653.81463   -17979.741    25.335664   -17954.405   -11.102266 0.0015069391 
Loop time of 34246.1 on 1 procs for 2000000 steps with 14 atoms

Performance: 5.046 ns/day, 4.756 hours/ns, 58.401 timesteps/s
99.3% CPU use with 1 MPI tasks x 1 OpenMP threads

MPI task timing breakdown:
Section |  min time  |  avg time  |  max time  |%varavg| %total
---------------------------------------------------------------
Pair    | 34096      | 34096      | 34096      |   0.0 | 99.56
Neigh   | 0.46132    | 0.46132    | 0.46132    |   0.0 |  0.00
Comm    | 2.126      | 2.126      | 2.126      |   0.0 |  0.01
Output  | 9.9996     | 9.9996     | 9.9996     |   0.0 |  0.03
Modify  | 129.64     | 129.64     | 129.64     |   0.0 |  0.38
Other   |            | 7.359      |            |       |  0.02

Nlocal:        14.0000 ave          14 max          14 min
Histogram: 1 0 0 0 0 0 0 0 0 0
Nghost:         0.00000 ave           0 max           0 min
Histogram: 1 0 0 0 0 0 0 0 0 0
Neighs:         0.00000 ave           0 max           0 min
Histogram: 1 0 0 0 0 0 0 0 0 0
FullNghs:      182.000 ave         182 max         182 min
Histogram: 1 0 0 0 0 0 0 0 0 0

Total # of neighbors = 182
Ave neighs/atom = 13.000000
Neighbor list builds = 31163
Dangerous builds = 0

# SAfe minimized data file
#write_data butane_nvt_equil.data

Total wall time: 9:30:58
