ITEM: TIMESTEP
0
ITEM: NUMBER OF ATOMS
14
ITEM: BOX BOUNDS pp pp pp
-2.0000000000000000e+01 2.0000000000000000e+01
-2.0000000000000000e+01 2.0000000000000000e+01
-2.0000000000000000e+01 2.0000000000000000e+01
ITEM: ATOMS id type x y z fx fy fz
14 2 -0.84002 -0.608821 0.124743 23.4282 -17.0112 0.685433
9 2 -1.38876 2.20939 -0.0959334 -10.7115 4.85616 -2.14576
10 2 -2.29307 0.675266 -0.36612 -17.1652 10.6198 -5.55552
12 2 0.405515 0.635701 -0.537647 -30.5805 -5.66668 16.6281
2 2 -3.15928 -0.432125 2.26894 -16.4689 -44.9293 -20.5654
4 2 -1.62472 -0.0861715 3.15658 43.192 -24.5 2.46025
1 1 -2.49142 0.276126 2.67525 -21.7452 47.5236 -9.58892
3 2 -3.05481 0.623863 3.52915 -16.2528 15.7547 21.4311
5 1 -2.33408 1.462 1.7069 35.2103 -6.43822 3.67053
6 2 -3.29077 1.99184 1.61883 -9.34934 0.792148 -10.0469
7 2 -1.67274 2.18567 2.20623 5.0479 9.57902 8.1456
8 1 -1.63735 1.21723 0.334565 -21.3572 27.8183 -15.4425
11 1 -0.388972 0.386422 0.268103 30.6204 -11.9244 7.57354
13 2 0.14052 0.437182 1.2387 6.13192 -6.47388 2.75041
ITEM: TIMESTEP
500
ITEM: NUMBER OF ATOMS
14
ITEM: BOX BOUNDS pp pp pp
-2.0000000000000000e+01 2.0000000000000000e+01
-2.0000000000000000e+01 2.0000000000000000e+01
-2.0000000000000000e+01 2.0000000000000000e+01
ITEM: ATOMS id type x y z fx fy fz
14 2 -1.10464 -0.313137 -0.168582 -9.78342 -7.06276 -6.08586
9 2 -2.97619 2.16221 0.440426 1.68953 -36.6566 10.1316
10 2 -3.16297 0.249854 0.94682 -3.60425 31.1756 1.47134
12 2 -2.26487 0.681358 -1.35374 25.6631 -17.3767 27.9975
2 2 -2.0699 -0.447608 2.83438 -29.7393 -16.0535 20.5518
4 2 -0.648173 -0.618322 1.97873 4.87364 23.1953 7.87205
1 1 -1.17317 0.115982 2.67162 8.89876 -6.74395 -32.8861
3 2 -0.617498 0.25158 3.58853 11.8339 -1.10352 17.6727
5 1 -1.6228 1.43499 2.03737 45.25 -1.84494 -54.5296
6 2 -2.22935 2.006 2.70495 -12.1368 19.7211 28.0771
7 2 -0.683021 2.08198 1.67929 -38.274 -21.4185 18.6662
8 1 -2.48845 1.15729 0.765886 20.0388 7.98744 -6.45445
11 1 -1.59114 0.655912 -0.391812 -23.0719 16.9579 -40.684
13 2 -0.73877 1.31121 -0.676842 -1.63809 9.22309 8.19963
ITEM: TIMESTEP
1000
ITEM: NUMBER OF ATOMS
14
ITEM: BOX BOUNDS pp pp pp
-2.0000000000000000e+01 2.0000000000000000e+01
-2.0000000000000000e+01 2.0000000000000000e+01
-2.0000000000000000e+01 2.0000000000000000e+01
ITEM: ATOMS id type x y z fx fy fz
14 2 -2.41487 0.803773 -0.735102 -1.09119 4.90208 3.47656
9 2 -3.19061 1.62736 2.08495 -15.821 15.1682 26.444
10 2 -2.65659 -0.0714725 1.92382 -9.48256 -34.1613 24.5754
12 2 -3.99935 0.0915678 -0.0940363 37.9188 25.9773 11.5016
2 2 -0.436362 -0.784914 2.22493 11.9544 27.6033 11.975
4 2 0.0353372 -0.287693 0.679247 3.41468 18.3885 14.1895
1 1 -0.0660539 0.180694 1.72873 64.5942 -48.7963 -29.774
3 2 1.08545 0.530733 2.03126 -64.0123 -24.3996 -9.85261
5 1 -1.02912 1.30977 1.7192 -31.3395 60.5494 18.6189
6 2 -0.94403 1.82016 2.77776 -2.74271 -8.77383 -37.6859
7 2 -0.727319 2.09126 0.896661 -10.0547 -21.4273 30.5502
8 1 -2.5758 0.924729 1.56898 41.504 7.86124 -65.6313
11 1 -3.15815 0.921384 0.0827707 -49.0962 -6.07742 11.1718
13 2 -3.79979 1.87285 -0.0133439 24.2541 -16.8144 -9.55903
ITEM: TIMESTEP
1500
ITEM: NUMBER OF ATOMS
14
ITEM: BOX BOUNDS pp pp pp
-2.0000000000000000e+01 2.0000000000000000e+01
-2.0000000000000000e+01 2.0000000000000000e+01
-2.0000000000000000e+01 2.0000000000000000e+01
ITEM: ATOMS id type x y z fx fy fz
14 2 -3.33069 0.756887 0.291383 6.83525 9.98341 -7.10178
13 2 -3.66 2.00261 1.63686 -7.67855 -54.2742 -11.1978
10 2 -1.9721 -0.686214 2.20432 3.01864 56.139 -10.9456
2 2 -0.0885032 -0.452538 0.332259 -8.63011 -21.2346 9.53027
4 2 -0.888369 0.741384 -0.79117 -3.54139 -5.46671 22.6872
9 2 -2.10652 0.961034 3.11947 -11.661 -20.9807 -12.4307
12 2 -4.25494 0.0840032 1.50113 -2.42793 13.7806 22.4865
1 1 -0.362735 0.588953 0.204995 34.304 51.0175 -26.174
5 1 -0.90248 1.33569 1.45548 -36 -80.2399 -33.6004
6 2 -0.124281 1.66933 2.10795 23.1986 -6.02187 27.275
7 2 -1.44532 2.20693 1.22835 -14.3814 49.4224 -25.9999
8 1 -2.10185 0.511759 2.06125 14.9079 -24.5269 59.1039
11 1 -3.44759 0.847317 1.39163 8.97539 33.6961 -11.8487
3 2 0.650477 1.03939 -0.0172257 -6.91945 -1.29407 -1.78393
ITEM: TIMESTEP
2000
ITEM: NUMBER OF ATOMS
14
ITEM: BOX BOUNDS pp pp pp
-2.0000000000000000e+01 2.0000000000000000e+01
-2.0000000000000000e+01 2.0000000000000000e+01
-2.0000000000000000e+01 2.0000000000000000e+01
ITEM: ATOMS id type x y z fx fy fz
14 2 -3.82055 0.784146 1.85591 -5.22366 -22.3836 -21.8393
13 2 -2.97498 1.87803 2.7267 9.36312 -28.2254 17.0549
10 2 -1.55557 -0.735662 1.71742 -0.381499 -30.2561 -12.8463
2 2 -0.701421 1.28162 -1.2402 19.0041 -3.73122 -18.1568
4 2 -1.86877 0.095412 -0.594984 -7.33849 -39.8192 -10.9342
9 2 -0.836675 0.360984 2.78934 37.4231 -2.01721 68.5669
12 2 -3.29892 0.144285 3.43347 0.814007 3.10926 7.05173
1 1 -1.43643 1.05982 -0.481766 16.7039 20.503 29.8836
5 1 -0.82687 1.17032 0.958546 27.0281 -14.4543 -13.1865
6 2 0.346746 0.924039 1.04915 -48.0144 -0.489024 -17.6027
7 2 -0.783777 2.21797 1.25627 -8.934 17.6577 9.19177
8 1 -1.52231 0.290482 2.02394 -67.0756 40.041 -33.5131
11 1 -2.98454 0.732151 2.55778 38.2769 44.7011 -14.8812
3 2 -2.2561 1.74039 -0.726514 -11.6456 15.364 11.2112
ITEM: TIMESTEP
2500
ITEM: NUMBER OF ATOMS
14
ITEM: BOX BOUNDS pp pp pp
-2.0000000000000000e+01 2.0000000000000000e+01
-2.0000000000000000e+01 2.0000000000000000e+01
-2.0000000000000000e+01 2.0000000000000000e+01
ITEM: ATOMS id type x y z fx fy fz
4 2 -3.19546 0.536758 0.266957 -35.6505 -35.3393 4.78098
2 2 -2.97646 1.83909 -0.930087 18.312 -12.2347 6.76002
1 1 -2.67139 1.43459 0.0826489 32.4853 10.4968 -24.6552
3 2 -3.02565 2.2016 0.744798 -7.75684 15.9813 26.1421
10 2 -1.39192 -0.86241 1.11742 5.50256 25.9473 37.9798
9 2 0.0376429 -0.131905 1.91959 -1.70454 14.7698 -4.01337
12 2 -1.50317 0.16996 3.78914 22.3948 -23.4826 40.3445
14 2 -2.96034 0.388832 2.9447 -3.30895 -5.31732 -14.5073
13 2 -1.84676 1.70982 3.11754 8.26242 15.9162 -6.21024
5 1 -1.17941 1.05509 0.370231 -8.40501 52.6047 38.6636
7 2 -0.609832 1.98969 0.527384 2.14293 9.66543 3.30698
8 1 -1.00019 0.143957 1.61744 -59.2426 -29.4184 -10.1311
11 1 -1.88315 0.635162 2.92522 8.70654 -10.3098 -58.4437
6 2 -0.706719 0.659064 -0.481537 18.2619 -29.2794 -40.0171
ITEM: TIMESTEP
3000
ITEM: NUMBER OF ATOMS
14
ITEM: BOX BOUNDS pp pp pp
-2.0000000000000000e+01 2.0000000000000000e+01
-2.0000000000000000e+01 2.0000000000000000e+01
-2.0000000000000000e+01 2.0000000000000000e+01
ITEM: ATOMS id type x y z fx fy fz
4 2 -2.17228 1.1622 -0.783777 4.30689 1.39111 -3.96269
2 2 -3.85568 1.60335 -0.387567 24.1232 -11.2804 21.707
1 1 -2.91747 1.06674 0.030381 -2.17444 12.577 -25.1912
3 2 -3.10937 -0.0130924 0.063509 -8.6899 -9.74178 5.21442
10 2 -1.25 0.872906 3.27993 -11.9064 8.75997 -40.0339
9 2 -2.19685 -0.314563 2.3808 19.5043 14.559 -12.4442
12 2 0.6184 -0.334978 2.2316 -5.07045 8.45941 14.6716
14 2 0.384547 1.01755 1.09034 -4.70939 -13.9438 -4.05947
13 2 -0.227773 -0.742983 0.853229 -6.31724 7.45674 -19.3578
5 1 -2.31168 1.5768 1.34601 -39.588 39.7536 37.2034
7 2 -3.19279 1.77297 2.07589 16.8955 2.20612 -20.9301
8 1 -1.4955 0.580442 2.16609 23.534 -38.6288 38.628
11 1 -0.121417 0.116574 1.53643 -6.53708 5.93809 6.98648
6 2 -1.84415 2.62275 1.21964 -3.37095 -27.5062 1.56842
ITEM: TIMESTEP
3500
ITEM: NUMBER OF ATOMS
14
ITEM: BOX BOUNDS pp pp pp
-2.0000000000000000e+01 2.0000000000000000e+01
-2.0000000000000000e+01 2.0000000000000000e+01
-2.0000000000000000e+01 2.0000000000000000e+01
ITEM: ATOMS id type x y z fx fy fz
4 2 -4.34837 1.54925 1.38421 21.1996 -2.10487 -10.4756
2 2 -3.90958 0.166925 2.23768 24.4078 -0.178608 -24.0751
9 2 -0.84333 -0.105472 2.4097 -4.78764 -10.9372 -5.85566
13 2 -1.21616 -0.170749 -0.371669 3.40576 24.1665 5.22023
1 1 -3.47855 0.806562 1.37453 -21.4212 17.2221 46.2848
3 2 -3.52202 0.282309 0.406813 6.12008 -4.9511 -1.68939
10 2 0.0739024 1.35018 2.09438 -26.8702 -15.7279 -14.6202
14 2 0.159823 1.1132 -0.226896 2.77404 -8.80807 -11.1744
5 1 -2.11162 1.54497 1.78067 -31.3497 8.02522 -13.0867
7 2 -2.29252 1.88121 2.85963 11.1598 -3.74478 -21.4579
8 1 -0.799769 0.700762 1.65319 12.4342 39.8278 33.4004
11 1 -0.377984 0.275835 0.251096 -0.51282 -73.618 4.00248
6 2 -2.08951 2.49499 1.1204 7.3805 -22.5486 17.8454
12 2 0.211698 -0.767996 0.340535 -3.94022 53.3775 -4.31851
ITEM: TIMESTEP
4000
ITEM: NUMBER OF ATOMS
14
ITEM: BOX BOUNDS pp pp pp
-2.0000000000000000e+01 2.0000000000000000e+01
-2.0000000000000000e+01 2.0000000000000000e+01
-2.0000000000000000e+01 2.0000000000000000e+01
ITEM: ATOMS id type x y z fx fy fz
4 2 -3.3112 0.653373 3.4021 -0.312986 -3.62833 -31.382
2 2 -1.95089 -0.377571 2.9358 -23.071 10.5549 -5.59112
9 2 -0.360109 0.0104436 1.38412 26.8834 -37.0972 13.4835
13 2 -2.51321 0.114763 -0.148094 2.17884 -6.30809 5.06561
1 1 -2.72606 0.359935 2.46252 77.4933 -8.48802 83.1175
3 2 -3.1861 -0.303309 1.75254 -23.0929 1.46263 -21.4943
10 2 -0.0246336 1.5401 0.571477 60.3429 45.6302 -4.06559
14 2 -1.83249 1.58243 -0.729937 1.20442 8.32863 -9.79978
5 1 -1.74605 1.49028 1.97296 -49.5578 36.9276 -15.8922
7 2 -1.33921 2.15179 2.85521 -7.51418 -31.0484 -28.8383
8 1 -0.736591 0.88073 0.918847 -80.8857 11.6986 39.1357
11 1 -1.53481 0.612506 -0.306643 -42.6463 1.99803 -8.40323
6 2 -2.52581 2.19228 1.41941 38.0037 -11.1958 13.15
12 2 -1.02288 0.0470285 -1.04741 20.9743 -18.8348 -28.4857
ITEM: TIMESTEP
4500
ITEM: NUMBER OF ATOMS
14
ITEM: BOX BOUNDS pp pp pp
-2.0000000000000000e+01 2.0000000000000000e+01
-2.0000000000000000e+01 2.0000000000000000e+01
-2.0000000000000000e+01 2.0000000000000000e+01
ITEM: ATOMS id type x y z fx fy fz
13 2 -3.63081 0.581374 0.646028 -4.30151 -6.79232 2.03965
14 2 -3.34022 2.26721 -0.00595032 16.4815 -33.3443 11.3688
11 1 -2.952 1.15317 -0.00122755 -40.8213 55.1698 -44.4802
12 2 -3.16022 0.916608 -1.1235 5.57412 -5.59417 32.6125
2 2 -2.48935 -0.162326 2.96799 50.8991 11.0038 2.87122
9 2 -1.31306 -0.0435539 0.145245 20.8208 -36.9063 -12.3001
3 2 -0.731603 0.0515092 3.74571 -4.52319 1.03138 13.2213
4 2 -0.987126 -0.958888 2.28165 -3.87072 17.4627 11.4958
1 1 -1.30956 0.00405641 2.81573 -47.5285 -38.3198 -25.4541
10 2 -0.931769 1.60426 -0.322182 37.2174 30.7704 -31.6447
5 1 -1.01391 1.18414 1.91434 15.4107 8.94803 -59.3496
7 2 0.0987832 1.3322 1.82733 -4.77443 -9.14944 0.845236
8 1 -1.49232 0.991362 0.308556 -23.425 -2.06395 98.6518
6 2 -1.292 2.15049 2.35528 -17.1589 7.7842 0.122345
ITEM: TIMESTEP
5000
ITEM: NUMBER OF ATOMS
14
ITEM: BOX BOUNDS pp pp pp
-2.0000000000000000e+01 2.0000000000000000e+01
-2.0000000000000000e+01 2.0000000000000000e+01
-2.0000000000000000e+01 2.0000000000000000e+01
ITEM: ATOMS id type x y z fx fy fz
13 2 -3.72462 0.216164 1.8052 11.4905 13.6783 10.6292
14 2 -3.77404 2.14673 1.56374 12.093 -31.5083 7.64797
11 1 -3.49228 1.10017 1.16082 -54.0891 22.1422 -29.5246
12 2 -4.37888 0.983651 0.378436 36.6749 2.84941 16.9101
2 2 -0.421201 -0.969303 1.32676 8.85687 15.08 14.3576
9 2 -2.11452 0.0535071 -0.0954103 9.80172 41.4919 11.8317
3 2 -0.699357 -0.341201 2.98933 -21.3658 -4.66333 14.5508
4 2 0.813818 0.0577505 2.30543 -18.9373 -0.593899 -17.3776
1 1 -0.288938 -0.0710508 2.02178 13.6527 -16.8072 -22.3651
10 2 -2.19372 1.93853 -0.348798 12.3193 -24.0068 21.8892
5 1 -0.892039 1.21001 1.36171 37.2262 -18.1507 -4.67993
7 2 -0.00810653 1.62282 0.83112 -6.83249 5.41445 -11.1447
8 1 -2.11596 1.10654 0.457403 -26.8542 -35.1033 -35.1307
6 2 -1.02164 1.87598 2.18658 -14.0362 30.1772 22.406
ITEM: TIMESTEP
5500
ITEM: NUMBER OF ATOMS
14
ITEM: BOX BOUNDS pp pp pp
-2.0000000000000000e+01 2.0000000000000000e+01
-2.0000000000000000e+01 2.0000000000000000e+01
-2.0000000000000000e+01 2.0000000000000000e+01
ITEM: ATOMS id type x y z fx fy fz
9 2 -3.07745 0.269845 0.256889 -13.0112 -16.6954 -4.49116
10 2 -3.05343 1.94031 0.638716 -42.4971 59.0539 -15.5173
13 2 -1.98541 0.7046 3.0505 -1.00754 1.10035 2.74361
2 2 -0.207752 -0.789429 1.05275 -5.82095 35.491 -4.02404
3 2 0.11385 0.534764 2.17175 5.64079 11.0402 21.8838
1 1 -0.0981304 0.373635 1.12467 16.6577 -46.0326 -22.4017
4 2 0.808334 0.616995 0.500537 -1.27975 -5.20566 14.607
14 2 -3.71619 1.32844 2.84878 6.65562 20.3102 7.04137
11 1 -2.89345 0.729358 2.42856 -40.8467 -31.4939 -22.0364
12 2 -3.46263 -0.256518 2.4693 24.0619 3.80544 5.6386
5 1 -1.20147 1.22378 0.518042 -5.18571 -49.9127 -8.03257
7 2 -1.16756 0.918161 -0.540603 2.0539 15.8627 -13.0511
8 1 -2.66644 1.02507 0.916458 42.6297 -35.1701 39.1933
6 2 -0.93731 2.24388 0.660313 11.9494 37.8466 -1.55346
ITEM: TIMESTEP
6000
ITEM: NUMBER OF ATOMS
14
ITEM: BOX BOUNDS pp pp pp
-2.0000000000000000e+01 2.0000000000000000e+01
-2.0000000000000000e+01 2.0000000000000000e+01
-2.0000000000000000e+01 2.0000000000000000e+01
ITEM: ATOMS id type x y z fx fy fz
9 2 -3.40315 -0.073183 1.54288 33.836 37.5268 0.372332
10 2 -3.46326 1.71164 1.78008 0.599118 3.66465 10.9677
13 2 -0.921566 1.49102 2.87249 -10.4517 -9.4353 -1.24755
2 2 0.192156 1.31009 -0.121603 -18.118 -41.6524 0.411962
3 2 -0.708741 -0.171467 -0.845464 1.60991 6.33755 -1.47369
1 1 -0.576216 0.436186 0.0776893 -4.2628 65.1101 -35.9675
4 2 -0.117474 -0.243926 0.780239 -1.08132 -6.9529 26.5065
14 2 -2.05835 0.654017 3.92638 -21.8938 -0.373489 11.8537
11 1 -1.72234 0.686847 2.89544 14.6525 14.2457 -44.1748
12 2 -1.1868 -0.267639 2.68853 -0.382762 2.50592 4.38689
5 1 -1.92129 1.27985 0.393622 30.2615 -35.6361 17.6259
7 2 -2.57309 1.28199 -0.480025 -7.38793 -0.925589 -12.5266
8 1 -2.71077 0.907789 1.65441 -21.5649 -48.8431 24.9813
6 2 -1.59835 2.30853 0.567431 4.18418 14.4281 -1.71626
ITEM: TIMESTEP
6500
ITEM: NUMBER OF ATOMS
14
ITEM: BOX BOUNDS pp pp pp
-2.0000000000000000e+01 2.0000000000000000e+01
-2.0000000000000000e+01 2.0000000000000000e+01
-2.0000000000000000e+01 2.0000000000000000e+01
ITEM: ATOMS id type x y z fx fy fz
3 2 -1.82296 -0.00482369 -1.27749 11.977 33.5989 24.4701
1 1 -1.55058 0.74235 -0.417356 -34.7939 18.1515 -19.4729
7 2 -3.14551 -0.326708 0.580167 -2.30422 -2.672 1.55585
2 2 -1.58025 1.84215 -0.706943 -3.41173 -20.8866 -12.5323
9 2 -1.45567 -0.623278 2.02793 9.2533 12.7455 10.9316
4 2 -0.49947 0.641949 -0.142605 11.3674 -14.6286 8.82805
10 2 -2.65923 0.320027 2.85561 -27.1696 -3.74953 27.1063
13 2 -1.27789 2.48273 2.76575 -32.5776 23.7663 8.52659
14 2 -0.327154 1.30167 3.50924 8.37088 -16.5378 11.6444
11 1 -0.875949 1.50156 2.59268 -4.16573 -13.8913 -33.8213
12 2 -0.160313 1.80647 1.80573 11.0331 -14.6302 -5.10239
5 1 -2.55509 0.591775 0.7772 -21.8738 4.8458 -24.5225
8 1 -1.91055 0.406717 2.10128 57.1773 -6.56717 19.5189
6 2 -3.36767 1.37339 0.904936 17.1176 0.455175 -17.1305
ITEM: TIMESTEP
7000
ITEM: NUMBER OF ATOMS
14
ITEM: BOX BOUNDS pp pp pp
-2.0000000000000000e+01 2.0000000000000000e+01
-2.0000000000000000e+01 2.0000000000000000e+01
-2.0000000000000000e+01 2.0000000000000000e+01
ITEM: ATOMS id type x y z fx fy fz
3 2 -3.23136 1.74164 0.548923 5.57043 -24.5183 -21.9538
1 1 -2.80908 0.857063 -0.0940964 -11.8898 47.4915 51.8962
7 2 -1.61049 -0.78737 0.226731 15.7322 -28.1015 -8.68531
2 2 -2.16498 1.37156 -0.81402 7.06176 -0.566454 -13.2959
9 2 -0.0629046 1.18752 0.794293 -28.1008 -7.36432 13.6614
4 2 -3.66995 0.379245 -0.587995 -0.079176 -7.21423 -1.55251
10 2 -0.185809 -0.248237 1.87806 -13.7729 40.8292 6.23549
13 2 -1.87202 1.28366 3.48302 -4.82081 -12.8746 4.81412
14 2 -0.299807 2.06481 3.16682 17.2315 -7.5877 15.0437
11 1 -1.21153 1.67772 2.70603 22.0181 6.43058 -25.272
12 2 -1.62094 2.67574 2.42918 -12.2711 -8.09495 -17.6768
5 1 -1.96704 -0.0133314 0.885094 -41.9545 12.889 -43.2807
8 1 -0.812509 0.690852 1.52386 39.8733 -12.1018 31.2929
6 2 -2.67317 -0.496862 1.58906 5.40176 0.783573 8.77324
ITEM: TIMESTEP
7500
ITEM: NUMBER OF ATOMS
14
ITEM: BOX BOUNDS pp pp pp
-2.0000000000000000e+01 2.0000000000000000e+01
-2.0000000000000000e+01 2.0000000000000000e+01
-2.0000000000000000e+01 2.0000000000000000e+01
ITEM: ATOMS id type x y z fx fy fz
1 1 -3.3707 0.778316 0.911401 15.2953 -57.7899 29.7172
2 2 -3.54456 1.74551 1.31289 -2.66979 39.6151 10.3945
4 2 -4.13028 0.554405 0.197152 -29.0636 -9.73508 -20.7138
7 2 -1.86177 0.953452 -0.702131 -8.78207 -6.38979 1.53131
10 2 -0.11196 1.7629 0.599093 1.87486 -11.8424 3.07543
5 1 -1.97973 0.540843 0.33223 13.306 21.7903 -6.29815
6 2 -1.84555 -0.554462 0.292265 12.6474 -2.23041 -2.02413
3 2 -3.47449 0.0456875 1.79951 -4.82441 18.2923 -19.9851
9 2 -1.55285 2.18798 1.38211 -28.8525 60.098 30.627
13 2 0.236188 -0.209391 2.44359 2.00159 -11.4548 -17.605
14 2 0.0698962 1.37022 3.04291 17.8642 22.5018 22.8125
11 1 -0.477429 0.618096 2.50977 2.0733 30.8411 -32.2044
12 2 -1.2658 0.325538 3.17601 -27.8314 -9.76062 12.3115
8 1 -0.964755 1.35819 1.19782 36.961 -83.9356 -11.639
ITEM: TIMESTEP
8000
ITEM: NUMBER OF ATOMS
14
ITEM: BOX BOUNDS pp pp pp
-2.0000000000000000e+01 2.0000000000000000e+01
-2.0000000000000000e+01 2.0000000000000000e+01
-2.0000000000000000e+01 2.0000000000000000e+01
ITEM: ATOMS id type x y z fx fy fz
1 1 -3.06541 0.132116 1.93827 27.8975 8.17517 6.7667
2 2 -3.32319 0.492947 3.00342 10.1458 -6.88374 -29.8169
4 2 -3.93417 -0.20269 1.42379 -44.1448 -11.9142 -3.72356
7 2 -3.16805 2.10406 1.0288 -10.5797 15.0027 2.70071
10 2 -0.734401 1.96165 -0.135934 -15.9534 5.16163 43.7343
5 1 -2.54249 1.22138 0.906585 0.0382401 -21.6873 -6.45343
6 2 -2.79538 0.863586 -0.161944 9.00202 2.41122 26.8213
3 2 -2.46689 -0.835237 1.97702 -0.747782 22.6583 3.54438
9 2 -0.822604 2.40728 1.68062 1.10919 18.4422 13.4794
13 2 -0.556761 -0.0768744 2.05869 -10.2056 -22.0696 43.1308
14 2 -0.204253 -0.391586 0.452119 -0.233742 3.99932 -14.2711
11 1 -0.157689 0.408683 1.20889 -0.25273 8.28533 -7.66425
12 2 0.8859 0.622004 1.45279 12.5338 7.77001 -3.84359
8 1 -1.05737 1.63714 0.96166 21.3912 -29.351 -74.4048
ITEM: TIMESTEP
8500
ITEM: NUMBER OF ATOMS
14
ITEM: BOX BOUNDS pp pp pp
-2.0000000000000000e+01 2.0000000000000000e+01
-2.0000000000000000e+01 2.0000000000000000e+01
-2.0000000000000000e+01 2.0000000000000000e+01
ITEM: ATOMS id type x y z fx fy fz
6 2 -3.36589 1.38585 0.842004 -6.36613 -15.0877 -9.34423
14 2 -1.23009 0.576344 -0.972905 14.9557 -14.8447 31.7374
4 2 -2.02579 -0.861574 1.97918 12.8783 1.38058 -16.9205
3 2 -1.85709 0.105906 3.47411 -31.2201 4.67004 -37.7527
13 2 -0.79687 -0.538469 0.388926 4.41268 -43.1947 13.2105
1 1 -2.47596 0.0143594 2.46235 -20.8846 11.1935 24.3414
2 2 -3.51671 -0.417 2.62355 13.4217 15.4564 12.9187
7 2 -2.92583 2.2252 2.29709 24.5128 -20.5994 -17.6951
10 2 -1.09784 2.4458 0.3467 -1.85206 22.129 -3.02064
5 1 -2.56197 1.37212 1.59153 4.02953 -20.2534 35.5869
9 2 -0.500297 1.6812 1.84227 3.104 0.538066 -10.3985
11 1 -0.626929 0.438994 0.034596 -64.2114 52.7763 -54.5672
8 1 -1.17127 1.54363 0.948781 11.2146 9.33245 30.9613
12 2 0.353522 0.701508 -0.301761 36.005 -3.49649 0.942585
ITEM: TIMESTEP
9000
ITEM: NUMBER OF ATOMS
14
ITEM: BOX BOUNDS pp pp pp
-2.0000000000000000e+01 2.0000000000000000e+01
-2.0000000000000000e+01 2.0000000000000000e+01
-2.0000000000000000e+01 2.0000000000000000e+01
ITEM: ATOMS id type x y z fx fy fz
6 2 -3.07444 -0.0803402 1.81956 -1.61209 -17.554 -10.845
14 2 -1.93855 2.47773 0.221313 -5.54273 20.1257 -19.4277
4 2 -0.659173 -0.320654 3.01123 20.7774 -24.9909 -2.26155
3 2 -0.786934 1.41579 3.41493 -33.1501 -40.4843 -9.90135
13 2 -3.0741 1.29689 -0.583711 45.443 14.3908 1.20448
1 1 -1.41796 0.428529 3.1308 26.495 57.5572 1.05333
2 2 -2.05842 0.112093 3.94614 -9.54011 1.65072 18.9425
7 2 -2.64499 1.57383 1.69847 -8.35446 8.12527 19.5447
10 2 -0.297442 0.933961 0.686734 51.3202 23.3689 25.7471
5 1 -2.19751 0.574144 1.83231 26.8269 27.7358 -30.3758
9 2 -1.03606 -0.447943 0.0173705 -22.2473 40.2477 24.0037
11 1 -1.92034 1.60906 -0.468087 -66.439 -7.69862 5.04074
8 1 -1.28465 0.629619 0.525621 -33.8701 -92.2617 -43.2016
12 2 -1.57924 1.864 -1.51498 9.89339 -10.2125 20.4766
ITEM: TIMESTEP
9500
ITEM: NUMBER OF ATOMS
14
ITEM: BOX BOUNDS pp pp pp
-2.0000000000000000e+01 2.0000000000000000e+01
-2.0000000000000000e+01 2.0000000000000000e+01
-2.0000000000000000e+01 2.0000000000000000e+01
ITEM: ATOMS id type x y z fx fy fz
14 2 -3.66022 1.58019 1.12476 -16.9382 -1.78638 -9.33307
13 2 -3.15691 -0.0601504 0.894785 0.21603 -12.0534 -0.907381
11 1 -3.10467 0.927348 0.417168 9.51754 4.70022 26.1712
12 2 -3.58714 0.813733 -0.578931 6.86255 11.861 1.80768
4 2 -1.84372 -0.768803 2.30146 -34.3375 -25.6545 12.2192
1 1 -0.922284 -0.301157 2.08602 42.8759 18.1228 10.9758
2 2 -0.172549 -0.457279 2.8904 -4.95993 -13.6704 1.95398
9 2 -1.1325 1.3237 -0.460194 10.9962 -14.682 37.9797
6 2 -1.81932 1.6282 2.7087 6.34372 -2.83524 -0.974237
3 2 -0.51601 -0.712289 1.14523 2.14249 -2.01965 -2.31927
7 2 -0.0652829 1.64978 2.1658 -18.0797 4.94478 -7.52793
10 2 -1.80492 2.54382 0.430425 -5.01074 57.4517 1.7065
5 1 -1.09132 1.2108 1.96944 17.2909 0.119989 -30.3814
8 1 -1.65101 1.51224 0.555953 -16.9192 -24.499 -41.3708
ITEM: TIMESTEP
10000
ITEM: NUMBER OF ATOMS
14
ITEM: BOX BOUNDS pp pp pp
-2.0000000000000000e+01 2.0000000000000000e+01
-2.0000000000000000e+01 2.0000000000000000e+01
-2.0000000000000000e+01 2.0000000000000000e+01
ITEM: ATOMS id type x y z fx fy fz
14 2 -2.72209 1.1638 3.06431 -8.79717 21.7639 -3.89738
13 2 -3.46299 0.0444144 2.14613 -19.2303 -74.2838 -7.50177
11 1 -3.30768 1.06364 2.11533 84.025 37.1669 -32.2991
12 2 -4.24676 1.56478 2.03218 -23.9874 20.4109 5.96066
4 2 -0.764432 -0.684236 1.96785 -21.0945 -29.536 35.2478
1 1 -0.42765 -0.274479 1.05932 72.4327 14.9858 -33.0079
2 2 0.72796 -0.41082 1.03025 -30.3096 0.212289 2.68733
9 2 -2.62368 0.728891 -0.0661508 -1.55049 5.3287 14.062
6 2 -0.396992 1.67785 1.94816 -5.38125 3.16381 -1.41155
3 2 -0.803816 -0.726146 0.140119 -8.93749 -17.525 -4.63795
7 2 -0.207759 1.68734 0.183455 -5.06606 1.08876 -2.9929
10 2 -2.4405 2.42701 0.43132 -10.3701 -6.2314 10.9964
5 1 -0.755914 1.18962 1.01131 -35.3976 14.8103 8.88911
8 1 -2.3467 1.37614 0.821179 13.6643 8.64487 7.90523
ITEM: TIMESTEP
10500
ITEM: NUMBER OF ATOMS
14
ITEM: BOX BOUNDS pp pp pp
-2.0000000000000000e+01 2.0000000000000000e+01
-2.0000000000000000e+01 2.0000000000000000e+01
-2.0000000000000000e+01 2.0000000000000000e+01
ITEM: ATOMS id type x y z fx fy fz
3 2 -0.0516938 0.0570374 -0.539488 -0.979731 -10.1844 7.50156
9 2 -3.52496 0.979338 1.03076 16.4741 13.5663 23.1764
7 2 -1.80015 1.41638 -0.615123 -19.952 7.99044 -12.0778
4 2 -1.41791 -0.964759 0.0919409 8.2832 11.3488 7.03635
1 1 -0.748933 -0.0820662 0.330413 25.6054 -18.0749 13.706
2 2 -0.0915156 -0.317709 1.27359 -22.5672 4.89419 -34.0399
14 2 -1.25319 1.19933 3.31945 8.53986 18.7046 19.2295
13 2 -1.6507 -0.334956 2.46549 -20.5482 49.2267 15.928
11 1 -2.0825 0.746312 2.80603 -58.3054 -77.5322 -42.1757
12 2 -3.03701 0.400122 3.3764 36.0713 22.105 2.0967
6 2 -0.680224 2.01931 0.500343 2.59891 5.63237 9.6399
10 2 -2.70576 2.58205 1.56979 -8.91539 -10.9043 7.43325
5 1 -1.47989 1.25695 0.416139 12.7158 7.19757 -1.93414
8 1 -2.58775 1.4704 1.48854 20.9793 -23.97 -15.5202
ITEM: TIMESTEP
11000
ITEM: NUMBER OF ATOMS
14
ITEM: BOX BOUNDS pp pp pp
-2.0000000000000000e+01 2.0000000000000000e+01
-2.0000000000000000e+01 2.0000000000000000e+01
-2.0000000000000000e+01 2.0000000000000000e+01
ITEM: ATOMS id type x y z fx fy fz
3 2 -1.9415 -0.337262 -1.08008 -8.63154 9.84057 -0.579362
9 2 -0.13222 0.171488 1.48834 -42.434 7.03838 12.0735
7 2 -3.25325 0.540767 1.08372 -25.5972 -19.5646 8.20165
4 2 -1.06965 1.28687 -1.07536 -23.878 -21.1282 16.814
1 1 -2.03281 0.720901 -0.723734 17.1013 34.7625 8.97716
2 2 -2.85217 1.36231 -1.22782 14.4316 -29.3204 8.33383
14 2 -2.27224 1.35735 3.49353 -25.196 4.65776 -0.321552
13 2 -0.990882 2.29965 2.70138 1.4376 30.373 -13.4924
11 1 -1.30684 1.32073 3.00359 18.1934 -8.15286 28.5052
12 2 -0.650947 1.10561 3.8318 22.0015 -12.5783 20.9267
6 2 -2.34533 1.95473 1.01586 5.67318 1.27765 -0.437174
10 2 -1.61813 -0.667264 2.2815 12.9444 6.73909 -7.55025
5 1 -2.25038 0.855537 0.861861 23.5165 21.4513 -53.5205
8 1 -1.23233 0.323204 1.89606 10.4372 -25.3959 -27.9308
ITEM: TIMESTEP
11500
ITEM: NUMBER OF ATOMS
14
ITEM: BOX BOUNDS pp pp pp
-2.0000000000000000e+01 2.0000000000000000e+01
-2.0000000000000000e+01 2.0000000000000000e+01
-2.0000000000000000e+01 2.0000000000000000e+01
ITEM: ATOMS id type x y z fx fy fz
3 2 -3.75849 1.25147 1.61747 3.31148 -1.42436 -5.68031
4 2 -3.57023 -0.534702 1.51021 0.50598 18.6804 -18.2787
1 1 -3.45213 0.439171 0.910148 -8.80199 -13.9949 -4.33807
2 2 -4.20942 0.467629 0.00172836 27.3381 -4.90842 35.2252
9 2 0.16878 0.545439 0.704279 -6.8128 1.02781 -0.226825
10 2 -0.623094 -0.415621 1.9132 -16.6308 -13.3169 -4.79371
7 2 -2.10449 1.4878 -0.301432 21.3598 22.0715 4.86926
14 2 -1.32121 1.71876 3.26478 7.24957 -10.4598 -25.2627
13 2 -0.660775 2.62716 1.9287 -7.33356 44.5279 -27.6289
11 1 -0.593324 1.67505 2.37249 -26.671 -31.2326 31.9581
12 2 0.371464 1.70016 2.87526 20.8914 -10.2723 3.81051
6 2 -1.83173 -0.162938 -0.360083 1.28651 -20.628 -13.5785
5 1 -1.98162 0.628029 0.368373 -27.0089 -23.7665 16.9386
8 1 -0.760606 0.510793 1.3329 11.3162 43.6961 6.98606
ITEM: TIMESTEP
12000
ITEM: NUMBER OF ATOMS
14
ITEM: BOX BOUNDS pp pp pp
-2.0000000000000000e+01 2.0000000000000000e+01
-2.0000000000000000e+01 2.0000000000000000e+01
-2.0000000000000000e+01 2.0000000000000000e+01
ITEM: ATOMS id type x y z fx fy fz
3 2 -2.8019 0.57328 0.057891 -15.6163 9.91686 10.1395
4 2 -3.64444 1.83372 1.16779 0.15806 -19.0006 -6.44572
1 1 -3.28425 0.765444 1.06239 -11.7471 -21.5739 16.514
2 2 -4.14046 -0.00654625 1.14227 16.1234 27.5177 -0.43758
9 2 -0.912847 -0.491343 0.569618 0.635258 -18.6648 -31.3495
10 2 -0.0586214 -0.00347302 2.00458 0.948822 11.3437 -15.87
7 2 -2.41935 -0.487417 2.90663 15.3704 35.5231 -52.3651
14 2 0.535887 1.89548 0.243961 -35.0434 -15.8398 5.51653
13 2 -0.652621 2.51387 1.36613 4.63601 6.59497 30.8503
11 1 -0.541762 1.70074 0.651601 37.6273 24.0648 -20.2995
12 2 -1.29164 2.11454 -0.0487144 1.46769 -15.8435 -18.1263
6 2 -1.78052 1.17953 2.77887 -21.4798 25.767 16.1016
5 1 -2.16382 0.413928 2.10876 8.63878 -34.1367 1.60546
8 1 -0.829145 0.336257 1.24224 -1.71905 -15.6688 64.1663
ITEM: TIMESTEP
12500
ITEM: NUMBER OF ATOMS
14
ITEM: BOX BOUNDS pp pp pp
-2.0000000000000000e+01 2.0000000000000000e+01
-2.0000000000000000e+01 2.0000000000000000e+01
-2.0000000000000000e+01 2.0000000000000000e+01
ITEM: ATOMS id type x y z fx fy fz
3 2 -2.18047 1.97447 2.84038 -26.1242 -27.2068 -0.517089
12 2 -1.29386 1.49311 -1.32887 16.8714 -5.39926 41.1508
2 2 -3.77206 0.860326 2.99395 13.8447 12.0397 -19.5223
9 2 -0.414234 -0.264564 0.131808 -13.213 1.72818 12.3439
10 2 -0.108909 0.768973 1.53381 -5.208 4.50309 -13.5685
7 2 -3.03183 -0.144976 1.07819 3.34955 -7.66922 -23.6529
4 2 -2.33213 0.439528 3.80404 7.85083 5.93584 -10.3144
1 1 -2.65249 0.908439 2.82685 34.4922 15.2405 14.8657
13 2 -2.16319 2.16309 -0.036258 -1.81797 -2.39674 12.771
11 1 -1.14626 1.72075 -0.173397 -32.2544 46.3096 -62.0117
6 2 -1.81163 -0.884044 2.08924 8.16403 -21.5143 -1.18148
5 1 -2.08059 0.0444433 1.59644 -38.9051 13.17 24.4847
8 1 -0.900506 0.545355 0.753524 31.3072 -4.9515 15.207
14 2 -0.523902 2.68444 -0.184429 1.64294 -29.7891 9.94522
ITEM: TIMESTEP
13000
ITEM: NUMBER OF ATOMS
14
ITEM: BOX BOUNDS pp pp pp
-2.0000000000000000e+01 2.0000000000000000e+01
-2.0000000000000000e+01 2.0000000000000000e+01
-2.0000000000000000e+01 2.0000000000000000e+01
ITEM: ATOMS id type x y z fx fy fz
3 2 -2.03316 0.455263 3.7879 21.4837 -3.92883 -23.99
12 2 -1.92133 2.9135 0.773341 11.4038 -33.0592 -11.1781
2 2 -0.232234 0.672588 3.15126 -41.275 -4.23364 -5.26008
9 2 -1.83093 -0.0105749 -0.601576 14.3199 8.54302 10.0174
10 2 -0.372343 0.832671 0.277468 1.27536 3.11508 -22.6779
7 2 -2.75645 -0.392793 1.68849 13.0869 -9.40128 -5.52445
4 2 -1.57567 1.78691 2.6773 1.23069 -13.9578 5.47791
1 1 -1.37795 0.681971 2.86441 29.2991 55.0796 40.7603
13 2 -2.48264 2.3227 -0.797365 -5.69251 -7.38682 9.5155
11 1 -2.27832 1.9443 0.242898 -32.5801 48.4044 12.1003
6 2 -0.991001 -0.907485 1.65312 14.3063 -47.4788 -6.575
5 1 -1.67016 -0.09845 1.6178 -44.6911 18.0102 -22.0204
8 1 -1.46819 0.658063 0.233503 0.957123 -10.1374 46.1122
14 2 -3.26046 1.81153 0.84541 16.8759 -3.56841 -26.7576
ITEM: TIMESTEP
13500
ITEM: NUMBER OF ATOMS
14
ITEM: BOX BOUNDS pp pp pp
-2.0000000000000000e+01 2.0000000000000000e+01
-2.0000000000000000e+01 2.0000000000000000e+01
-2.0000000000000000e+01 2.0000000000000000e+01
ITEM: ATOMS id type x y z fx fy fz
9 2 -3.16373 0.127468 -0.0233197 -1.0184 17.4432 -0.827873
12 2 -3.16025 2.84964 0.49653 8.21047 -16.4725 2.93141
13 2 -3.0094 1.92893 2.04828 4.2158 1.28695 -9.704
7 2 -2.32178 -0.559128 2.17204 5.6509 -5.02077 -13.2607
6 2 -1.03264 -1.02493 0.878829 -10.7358 -5.27248 5.56669
5 1 -1.56247 -0.208026 1.4206 -0.40039 26.4134 -23.2712
3 2 0.21987 -0.00451324 2.72788 12.0682 -21.6059 -6.13674
2 2 0.165496 1.29616 1.46312 -32.0247 -27.6921 31.4553
10 2 -1.59399 0.952669 -0.58102 -19.0578 -13.3768 25.6049
4 2 -0.858529 1.15094 3.07299 -11.0168 13.9231 -14.9924
1 1 -0.507997 0.596273 2.17057 45.3304 28.5384 -1.63178
11 1 -2.53229 2.07242 1.03751 4.63437 37.8424 4.91705
8 1 -2.29322 0.74024 0.327893 32.5373 -19.9469 5.09139
14 2 -1.4945 2.58798 1.22421 -38.3936 -16.06 -5.74207
ITEM: TIMESTEP
14000
ITEM: NUMBER OF ATOMS
14
ITEM: BOX BOUNDS pp pp pp
-2.0000000000000000e+01 2.0000000000000000e+01
-2.0000000000000000e+01 2.0000000000000000e+01
-2.0000000000000000e+01 2.0000000000000000e+01
ITEM: ATOMS id type x y z fx fy fz
9 2 -2.48256 2.14175 0.024502 -2.10215 -20.3674 -6.19277
12 2 -3.18344 -0.0702869 1.76614 3.27028 31.8114 13.2854
13 2 -2.96197 1.38098 2.99582 -9.52958 -12.8001 -4.66624
7 2 -0.0773411 1.48217 0.414821 21.7622 14.7797 -7.24824
6 2 -0.400273 1.02839 2.12628 22.3023 21.7599 51.4789
5 1 -0.718961 0.994608 1.13139 -84.0141 13.6746 -55.0968
3 2 0.326289 -0.797832 0.978654 29.2459 -4.80626 -3.40696
2 2 -1.10792 -1.08365 1.76836 -9.19119 10.7732 -24.0191
10 2 -1.97076 2.81576 1.53166 -2.49101 -23.5333 -10.256
4 2 -0.998771 -0.948636 -0.108754 -10.7559 11.2759 7.70502
1 1 -0.70751 -0.492668 0.871887 -7.36065 -38.8729 15.1342
11 1 -3.21194 1.07736 1.94816 -32.4274 -14.2355 -33.8876
8 1 -2.1795 1.79105 1.03149 44.7435 11.4451 42.1428
14 2 -4.32186 1.33917 1.66829 36.5478 -0.904439 15.0273
ITEM: TIMESTEP
14500
ITEM: NUMBER OF ATOMS
14
ITEM: BOX BOUNDS pp pp pp