ITEM: TIMESTEP
0
ITEM: NUMBER OF ATOMS
22
ITEM: BOX BOUNDS pp pp pp
-5.0000000000000000e+01 5.0000000000000000e+01
-5.0000000000000000e+01 5.0000000000000000e+01
-5.0000000000000000e+01 5.0000000000000000e+01
ITEM: ATOMS id type x y z fx fy fz
1 1 6.49506 1.20579 0.218403 20.0181 48.594 4.71713
2 2 6.64132 2.27951 0.335982 -69.6602 -49.2305 -4.46354
3 1 7.54171 2.71509 -0.0972173 49.4559 10.0314 -24.0544
4 1 6.61236 2.54648 1.39239 -1.54161 2.70263 18.9998
5 3 5.45414 2.93767 -0.363867 1.96115 -33.5402 11.075
6 4 4.57594 2.1817 -0.760468 0.944833 6.51766 -5.84972
7 5 5.41592 4.25609 -0.444341 -16.8007 87.981 0.664414
8 6 6.07804 4.81506 0.0745459 -10.6783 -35.3874 -17.0758
9 2 4.37669 5.20963 -1.07703 33.2821 -32.032 -91.7503
10 7 4.82781 5.67278 -1.95457 -29.1404 -26.9816 66.9349
11 2 3.07211 4.4774 -1.63192 36.7397 -53.7528 233.949
12 1 2.73146 3.8533 -0.805754 31.2381 74.4673 -93.327
13 1 2.24648 5.15793 -1.84005 -68.6311 61.4406 -30.2993
14 1 3.26332 3.69066 -2.3617 25.8232 -75.3313 -95.8624
15 3 3.99844 6.27347 -0.083298 -16.7118 21.741 49.098
16 4 4.75237 7.2048 0.243102 5.88265 -10.8627 -30.6086
17 5 2.89555 6.0276 0.672202 48.0828 41.4332 -28.8997
18 6 2.39468 5.18508 0.428499 -33.2173 -41.771 -5.7993
19 2 2.81397 6.57258 1.98106 135.214 92.6504 -36.7307
20 7 3.85193 6.77636 2.24412 -55.0889 -31.6135 15.8396
21 7 2.54522 7.62305 2.09234 -22.0533 16.7435 -18.6497
22 7 2.18368 6.00628 2.66673 -65.1187 -73.7995 82.0923
ITEM: TIMESTEP
1
ITEM: NUMBER OF ATOMS
22
ITEM: BOX BOUNDS pp pp pp
-5.0000000000000000e+01 5.0000000000000000e+01
-5.0000000000000000e+01 5.0000000000000000e+01
-5.0000000000000000e+01 5.0000000000000000e+01
ITEM: ATOMS id type x y z fx fy fz
1 1 6.47495 1.21222 0.207988 14.7357 -0.0394869 1.08482
2 2 6.63939 2.28179 0.33865 -15.0824 20.3366 -7.49791
3 1 7.53487 2.69535 -0.125219 1.83636 -11.6952 1.48063
4 1 6.62857 2.531 1.39972 -1.68502 0.228504 -1.81282
5 3 5.45517 2.93296 -0.368227 0.516513 -25.6663 13.5244
6 4 4.57819 2.17728 -0.766179 0.608607 5.68152 -6.63872
7 5 5.41201 4.25502 -0.447261 -39.9464 68.2097 -15.1272
8 6 6.05462 4.82296 0.0862238 13.7777 -18.1938 1.02436
9 2 4.37894 5.21196 -1.08148 3.48848 -68.6581 -25.3058
10 7 4.8463 5.65609 -1.96036 -0.272799 8.00715 5.99211
11 2 3.07725 4.47502 -1.62318 15.3495 -9.63735 33.351
12 1 2.7209 3.85564 -0.800088 -4.80622 2.8218 1.92421
13 1 2.25353 5.16067 -1.82189 5.80711 -0.140568 -12.5852
14 1 3.24928 3.68896 -2.35844 5.79528 14.9491 -11.5485
15 3 3.99437 6.27202 -0.0753208 1.68903 26.5408 34.9263
16 4 4.74996 7.21138 0.245104 1.66302 -15.4017 -31.5337
17 5 2.9017 6.02732 0.669481 4.88082 -5.52403 -25.0641
18 6 2.3855 5.18893 0.444213 -3.86791 2.82222 3.00057
19 2 2.81122 6.57588 1.98027 7.28048 33.822 30.5495
20 7 3.8514 6.78305 2.2317 -1.88293 -20.9291 31.5305
21 7 2.5526 7.62891 2.09139 -18.5746 0.326026 -20.5686
22 7 2.19447 6.016 2.68329 8.68973 -7.85982 -0.705742
