ITEM: TIMESTEP
0
ITEM: NUMBER OF ATOMS
22
ITEM: BOX BOUNDS pp pp pp
-5.0000000000000000e+01 5.0000000000000000e+01
-5.0000000000000000e+01 5.0000000000000000e+01
-5.0000000000000000e+01 5.0000000000000000e+01
ITEM: ATOMS id type x y z fx fy fz
1 1 5.76539 8.13433 -1.5409 18.3429 65.7555 22.6808
2 2 5.40395 7.11868 -1.70188 -10.8727 -79.4409 19.4545
3 1 6.25954 6.44336 -1.70181 -8.69099 9.21908 -6.60932
4 1 4.90983 7.15104 -2.67291 -16.1729 -5.17267 -37.5513
5 3 4.35868 6.64383 -0.676213 116.292 -17.8252 -10.8856
6 4 3.45836 7.41447 -0.453637 -30.1759 -11.1128 18.4434
7 5 4.8531 5.49581 -0.0470399 -196.168 84.8058 46.1064
8 6 5.68643 5.08381 -0.441891 102.502 -48.1938 -47.5745
9 2 3.98233 4.57637 0.773199 22.6489 -48.9206 -40.7238
10 7 4.43579 4.57273 1.76439 10.5452 -7.51478 20.6762
11 2 2.54561 5.10656 1.0094 49.6221 18.7227 72.1115
12 1 2.10813 5.17437 0.0133528 -21.8224 19.0047 -35.4963
13 1 1.92346 4.37972 1.53164 22.1407 22.7098 -3.01414
14 1 2.78384 6.01965 1.55494 -44.2748 -59.537 -38.8026
15 3 4.10998 3.06518 0.145354 -49.8461 61.8134 -26.9691
16 4 3.19855 2.61743 -0.608542 28.1969 8.43163 39.402
17 5 5.2843 2.45028 0.102337 43.6208 88.1259 64.638
18 6 5.21116 1.56396 -0.376389 2.48008 -79.2108 -42.6006
19 2 6.63391 2.90785 0.665506 -48.286 -24.9306 -43.3079
20 7 7.33612 2.18954 0.242384 -12.8551 36.4583 28.4367
21 7 6.79643 3.95747 0.420602 10.3305 -18.9518 -8.15975
22 7 6.50492 2.94725 1.74713 12.4427 -14.2359 9.74559
ITEM: TIMESTEP
1
ITEM: NUMBER OF ATOMS
22
ITEM: BOX BOUNDS pp pp pp
-5.0000000000000000e+01 5.0000000000000000e+01
-5.0000000000000000e+01 5.0000000000000000e+01
-5.0000000000000000e+01 5.0000000000000000e+01
ITEM: ATOMS id type x y z fx fy fz
1 1 5.74493 8.14433 -1.54759 -2.98072 -3.2886 12.2974
2 2 5.40304 7.12044 -1.6988 -11.2479 -9.2059 -13.4462
3 1 6.24063 6.42345 -1.72619 1.13534 6.95758 -3.10242
4 1 4.92301 7.13393 -2.67731 -0.492918 -4.47743 0.173599
5 3 4.36171 6.63939 -0.680956 107.522 -13.593 -8.35706
6 4 3.4602 7.40982 -0.459031 -29.9053 -11.8765 18.0561
7 5 4.84651 5.4947 -0.0492812 -82.1578 31.6658 -7.23759
8 6 5.6865 5.08905 -0.436543 -4.06992 3.61951 3.08791
9 2 3.98439 4.5784 0.769635 34.2706 -52.3993 -15.1925
10 7 4.46251 4.56008 1.749 -2.85574 -4.82756 -0.717253
11 2 2.55097 5.10544 1.01532 25.1857 -22.3484 -12.0559
12 1 2.08656 5.16521 0.0310213 -2.74129 16.1203 4.77901
13 1 1.94935 4.37442 1.55546 5.96181 4.48058 8.04025
14 1 2.75526 6.02122 1.57004 -24.0182 1.59245 -4.34181
15 3 4.10533 3.06443 0.152006 -38.9045 61.3189 -29.8197
16 4 3.19643 2.62427 -0.605624 26.2874 5.92012 38.5772
17 5 5.29039 2.4507 0.101013 19.4768 10.1372 21.8595
18 6 5.20939 1.56004 -0.368313 10.8029 0.848784 0.449759
19 2 6.62797 2.9091 0.664597 -60.5507 -5.9214 -13.0591
20 7 7.34435 2.21035 0.232573 10.6339 8.90262 14.3595
21 7 6.81054 3.95592 0.421829 8.23525 -6.6005 -11.9284
22 7 6.5318 2.96933 1.74867 10.4134 -17.0252 -2.42234
