14
 Atoms. Timestep: 0
1 -5.72472 -1.52715 1.8176
2 -5.75898 -2.58718 1.50262
2 -5.01682 -1.00379 1.19167
2 -6.75594 -1.02035 1.53271
1 -5.41664 -1.30474 3.29278
2 -5.38517 -0.18215 3.43154
2 -6.2236 -1.61864 3.915
1 -4.04086 -1.89796 3.54919
2 -3.30654 -1.31648 2.99048
2 -4.0227 -2.95415 3.16179
1 -3.55441 -1.91894 4.99494
2 -4.24482 -2.55541 5.6126
2 -2.5928 -2.39723 5.17385
2 -3.48298 -0.901654 5.40975
14
 Atoms. Timestep: 1
1 -5.72599 -1.52672 1.81716
2 -5.75884 -2.58524 1.50395
2 -5.01507 -1.00388 1.19102
2 -6.74492 -1.02672 1.53635
1 -5.41646 -1.30391 3.2925
2 -5.38476 -0.187993 3.43168
2 -6.22501 -1.62189 3.9174
1 -4.04059 -1.89847 3.54915
2 -3.30654 -1.31719 2.98965
2 -4.02236 -2.94956 3.16327
1 -3.55479 -1.91912 4.99546
2 -4.2428 -2.55142 5.61034
2 -2.59198 -2.39686 5.17165
2 -3.48378 -0.903126 5.40951
