14
 Atoms. Timestep: 0
1 -3.83383 -3.13405 9.40403
2 -2.99979 -2.56629 9.02965
2 -3.70817 -2.95987 10.5076
2 -4.76426 -2.71997 8.97556
1 -3.54197 -4.66064 9.00453
2 -3.38928 -4.64703 7.83733
2 -2.54575 -4.92932 9.36444
1 -4.64756 -5.6394 9.49734
2 -5.37907 -5.85659 8.65085
2 -5.13803 -5.10398 10.3079
1 -4.06718 -6.95157 10.061
2 -3.4487 -6.75805 10.9435
2 -4.79871 -7.72595 10.3439
2 -3.48753 -7.46178 9.27121
14
 Atoms. Timestep: 1
1 -3.8335 -3.13467 9.40427
2 -2.99934 -2.56449 9.02768
2 -3.71138 -2.96108 10.5032
2 -4.76297 -2.72087 8.97722
1 -3.54197 -4.65994 9.00361
2 -3.39229 -4.64898 7.84926
2 -2.54663 -4.92984 9.36565
1 -4.64762 -5.63939 9.49694
2 -5.37531 -5.85485 8.6565
2 -5.14011 -5.10515 10.3079
1 -4.06715 -6.95183 10.0608
2 -3.44834 -6.75839 10.9425
2 -4.79916 -7.72311 10.3439
2 -3.48724 -7.46019 9.27321
