ITEM: TIMESTEP
0
ITEM: NUMBER OF ATOMS
22
ITEM: BOX BOUNDS pp pp pp
-5.0000000000000000e+01 5.0000000000000000e+01
-5.0000000000000000e+01 5.0000000000000000e+01
-5.0000000000000000e+01 5.0000000000000000e+01
ITEM: ATOMS id type x y z fx fy fz
1 1 4.4234 2.92426 -3.43142 98.1525 -15.8069 82.0399
2 2 5.25821 3.03147 -2.73881 -71.7614 -100.425 -45.0919
3 1 5.82266 3.73657 -3.34901 33.7059 27.6887 -8.90378
4 1 5.85709 2.18187 -2.41076 -69.9404 82.7622 -45.7628
5 3 4.63349 3.70921 -1.56226 -13.5403 -12.7841 33.3228
6 4 3.42883 4.05193 -1.55045 35.7031 -3.2071 -11.2978
7 5 5.41115 3.68402 -0.459897 -92.0901 74.4363 -1.73608
8 6 6.23255 3.10045 -0.390274 81.9603 -64.0088 -13.3482
9 2 5.40362 4.65295 0.62672 74.5972 18.4416 -34.1771
10 7 6.3494 5.1646 0.448333 -66.7831 -24.8381 14.4964
11 2 5.67311 3.87814 1.92958 -91.6186 99.9014 21.4682
12 1 6.03589 4.59124 2.66983 -6.9913 10.2581 3.22822
13 1 4.77289 3.43531 2.35573 -12.5215 -11.3188 -0.582424
14 1 6.53919 3.21641 1.94076 92.0971 -83.6853 -15.9461
15 3 4.30371 5.75381 0.560149 83.4101 -30.8544 14.6789
16 4 4.73161 6.86804 0.281906 -26.7574 15.3905 -0.405475
17 5 3.11538 5.37947 0.928351 -8.27742 45.8337 -1.75625
18 6 2.92667 4.39619 1.06121 -8.00469 -38.4644 4.20951
19 2 2.07838 6.33802 1.05266 73.6826 86.5845 -31.0848
20 7 1.25105 5.82267 1.54055 -90.9797 -45.1742 41.4516
21 7 2.40534 7.14609 1.70705 -9.23214 -22.2962 -19.2527
22 7 1.86278 6.7579 0.0701525 -4.81093 -8.43427 14.4497
ITEM: TIMESTEP
1
ITEM: NUMBER OF ATOMS
22
ITEM: BOX BOUNDS pp pp pp
-5.0000000000000000e+01 5.0000000000000000e+01
-5.0000000000000000e+01 5.0000000000000000e+01
-5.0000000000000000e+01 5.0000000000000000e+01
ITEM: ATOMS id type x y z fx fy fz
1 1 4.41951 2.91733 -3.42578 0.270837 -28.1463 1.86702
2 2 5.25624 3.03286 -2.73685 -13.4347 19.9492 -28.4988
3 1 5.81255 3.72049 -3.37386 12.7061 4.07493 15.5753
4 1 5.85911 2.18301 -2.41686 -7.67205 -5.64913 -10.3516
5 3 4.63425 3.70486 -1.56623 -14.8353 -8.66826 35.5314
6 4 3.43154 4.04739 -1.55623 33.5801 -2.39892 -11.12
7 5 5.40612 3.68275 -0.462853 -5.13271 15.2326 11.9959
8 6 6.22836 3.10241 -0.377823 -2.90179 -5.39768 -22.9298
9 2 5.40659 4.65615 0.62327 11.7093 -21.9513 -18.5404
10 7 6.36007 5.14835 0.431664 -6.19241 11.8718 3.90109
11 2 5.67601 3.87844 1.93462 -3.62022 18.3005 36.5515
12 1 6.01739 4.58026 2.69554 -6.86398 8.61165 -3.65467
13 1 4.79159 3.42295 2.38006 -2.6144 -3.82636 -10.8071
14 1 6.53891 3.21297 1.96061 -5.71913 -5.73148 -19.4352
15 3 4.30139 5.75144 0.567527 97.4529 -16.7414 5.77117
16 4 4.72877 6.87497 0.284303 -30.0061 5.34429 2.6721
17 5 3.12069 5.37925 0.926035 -33.7616 6.35825 9.11405
18 6 2.92272 4.40073 1.079 2.25252 0.223349 -2.22838
19 2 2.07456 6.34122 1.05196 -4.90586 6.09536 8.90048
20 7 1.24306 5.82654 1.53344 -8.88246 6.77308 -7.76023
21 7 2.41539 7.14384 1.70597 -1.72063 0.403903 0.770117
22 7 1.88608 6.78118 0.072674 -9.70849 -4.72816 2.67601
