ITEM: TIMESTEP
0
ITEM: NUMBER OF ATOMS
22
ITEM: BOX BOUNDS pp pp pp
-5.0000000000000000e+01 5.0000000000000000e+01
-5.0000000000000000e+01 5.0000000000000000e+01
-5.0000000000000000e+01 5.0000000000000000e+01
ITEM: ATOMS id type x y z fx fy fz
1 1 1.99607 5.95208 0.791509 44.6403 78.0809 37.1594
2 2 2.59795 6.77584 1.17524 -19.3967 -181.95 -102.088
3 1 2.44207 6.72481 2.25283 -5.735 7.531 97.2898
4 1 2.25565 7.66191 0.640633 -27.7177 83.674 -36.6416
5 3 4.00117 6.4157 0.741178 21.1913 67.3733 16.66
6 4 4.92297 7.15454 1.06272 -2.21984 -5.63467 6.51537
7 5 4.13209 5.46912 -0.12393 -40.0452 -37.3249 1.6596
8 6 3.28088 4.92797 -0.175892 13.6543 16.0191 -9.01424
9 2 5.25441 4.6599 -0.491833 43.9187 -15.46 -133.144
10 7 5.60691 4.7647 -1.51792 -50.9543 1.57243 83.1225
11 2 6.52058 4.84618 0.225931 10.5131 18.8117 164.112
12 1 7.2401 4.03384 0.123495 12.5845 -29.7086 -16.2701
13 1 7.12051 5.72568 -0.00788922 -12.1154 14.8616 -7.8514
14 1 6.31917 4.8074 1.29646 15.6824 10.638 -92.8646
15 3 4.74405 3.2323 -0.398034 -38.4997 -15.5025 -65.4839
16 4 5.24535 2.41827 0.336551 1.91226 -16.8848 18.192
17 5 3.69968 2.85139 -1.23799 37.5742 42.9283 59.313
18 6 3.27786 1.98073 -0.947963 1.62668 -13.4969 -3.51991
19 2 2.93043 3.64657 -2.199 88.324 63.4368 -90.2696
20 7 3.4058 3.38184 -3.14348 -42.5052 22.5201 61.3005
21 7 1.97947 3.12284 -2.10165 -65.1907 -12.8347 -8.64474
22 7 2.85169 4.73372 -2.19907 12.758 -98.6504 20.4686
ITEM: TIMESTEP
1
ITEM: NUMBER OF ATOMS
22
ITEM: BOX BOUNDS pp pp pp
-5.0000000000000000e+01 5.0000000000000000e+01
-5.0000000000000000e+01 5.0000000000000000e+01
-5.0000000000000000e+01 5.0000000000000000e+01
ITEM: ATOMS id type x y z fx fy fz
1 1 1.98106 5.96463 0.787828 -8.09816 2.80749 0.989608
2 2 2.59689 6.77581 1.17621 -8.44328 -34.2475 -19.6648
3 1 2.42377 6.70455 2.25001 9.92703 13.736 -0.0375402
4 1 2.26643 7.66324 0.636424 1.41943 5.99021 12.4174
5 3 4.00254 6.41274 0.736915 18.5228 67.7608 18.9448
6 4 4.92518 7.14996 1.05717 -1.58124 -5.15184 6.46436
7 5 4.12784 5.46618 -0.126835 -23.4187 -21.2962 4.79544
8 6 3.26251 4.94654 -0.162541 -0.254405 0.999367 -12.6025
9 2 5.25684 4.66251 -0.497007 12.7532 -30.7688 -37.2852
10 7 5.62087 4.75393 -1.52035 -20.8368 12.19 -9.15804
11 2 6.52526 4.84507 0.233454 46.295 1.70501 64.2193
12 1 7.22567 4.01456 0.145154 -6.92921 -4.32572 -12.4712
13 1 7.13929 5.71875 0.0149285 -15.5538 9.48019 -8.61292
14 1 6.30303 4.82354 1.30034 -1.21022 6.04628 2.54827
15 3 4.7396 3.2302 -0.392053 -34.469 -2.04842 -72.0117
16 4 5.24289 2.42477 0.339191 3.46825 -23.2233 23.3335
17 5 3.70568 2.85113 -1.23939 25.8415 30.5266 60.0915
18 6 3.27591 1.99045 -0.931776 6.37965 -3.56236 -8.28971
19 2 2.92687 3.64936 -2.20073 15.0244 -40.4894 -11.8846
20 7 3.40788 3.39976 -3.14647 -8.96605 1.41105 -6.74163
21 7 1.9779 3.12256 -2.10052 -12.1149 18.2628 -14.7259
22 7 2.87864 4.73828 -2.1953 2.24458 -5.80219 19.6814
