14
 Atoms. Timestep: 0
1 -3.99674 -0.656565 6.55385
2 -2.88961 -0.885078 6.66308
2 -4.43814 -1.41162 7.15776
2 -3.99991 0.326132 7.06663
1 -4.45683 -0.596877 5.09508
2 -3.64545 -0.079239 4.50197
2 -4.4588 -1.60478 4.68591
1 -5.80538 0.049029 4.74441
2 -5.99873 1.00422 5.34604
2 -6.55446 -0.627715 5.13516
1 -5.95829 0.263446 3.23174
2 -5.70638 -0.632261 2.48742
2 -6.9416 0.667036 2.93248
2 -5.19103 1.01499 2.8838
14
 Atoms. Timestep: 1
1 -3.99583 -0.65614 6.55415
2 -2.89587 -0.884877 6.6602
2 -4.44202 -1.41362 7.15922
2 -4.00251 0.324034 7.06507
1 -4.45628 -0.596709 5.09452
2 -3.64962 -0.0811477 4.5053
2 -4.45871 -1.60533 4.68615
1 -5.80548 0.0493649 4.74505
2 -5.99629 0.998579 5.34105
2 -6.556 -0.628405 5.13418
1 -5.95776 0.263157 3.23051
2 -5.71018 -0.623606 2.4986
2 -6.9402 0.666148 2.93402
2 -5.19525 1.0123 2.88638
