22
 Atoms. Timestep: 0
1 2.76352 7.3498 -2.10643
2 3.66236 7.02004 -2.62744
1 4.32379 7.79931 -2.24883
1 3.6174 7.07467 -3.71514
3 4.23705 5.70213 -2.09192
4 4.75169 4.99975 -2.9785
5 3.78066 5.45942 -0.918789
6 3.6253 6.202 -0.252054
2 3.78232 4.18796 -0.124284
7 2.75269 3.91282 0.104319
2 4.54738 3.0494 -0.921958
1 4.2266 2.82457 -1.93914
1 5.59031 3.24854 -1.16843
1 4.52609 2.08336 -0.417557
3 4.40186 4.39087 1.3008
4 5.16355 5.32048 1.46728
5 4.30828 3.5102 2.38384
6 3.58692 2.80341 2.39771
2 5.16511 3.74595 3.49085
7 6.10414 3.19309 3.46521
7 5.30098 4.80312 3.71895
7 4.8098 3.27271 4.40622
22
 Atoms. Timestep: 1
1 2.74508 7.34044 -2.12449
2 3.65969 7.02176 -2.6245
1 4.32927 7.80174 -2.26203
1 3.63332 7.05764 -3.71359
3 4.23749 5.69888 -2.09841
4 4.75396 4.99515 -2.98364
5 3.7768 5.45744 -0.919047
6 3.60736 6.20219 -0.258195
2 3.78578 4.19101 -0.12767
7 2.75861 3.89559 0.086191
2 4.55296 3.04819 -0.916969
1 4.20196 2.81157 -1.92141
1 5.60297 3.23977 -1.13806
1 4.50581 2.09483 -0.390678
3 4.3985 4.38839 1.3085
4 5.1611 5.3276 1.46942
5 4.31344 3.51001 2.38024
6 3.58361 2.81271 2.41494
2 5.16143 3.7478 3.49064
7 6.10955 3.21197 3.44552
7 5.31307 4.80236 3.72087
7 4.82437 3.29054 4.42091
