ITEM: TIMESTEP
0
ITEM: NUMBER OF ATOMS
14
ITEM: BOX BOUNDS pp pp pp
-2.2206855000000001e+01 1.8793144999999999e+01
-1.9677098999999998e+01 2.1322901000000002e+01
-1.9241968000000000e+01 2.1758032000000000e+01
ITEM: ATOMS id type x y z fx fy fz
1 1 -4.68452 -1.01416 6.24439 22.0763 29.4523 -59.2509
2 2 -3.91795 -1.78972 6.20964 -8.32793 -8.06034 13.5731
3 2 -5.62562 -1.22931 6.70625 -4.96047 -11.4901 16.3565
4 2 -4.20888 -0.123074 6.65145 -4.81841 -0.308997 8.51696
5 1 -4.98362 -0.706369 4.73378 -14.3111 -19.7332 -15.4169
6 2 -4.16608 -0.292839 4.0869 -1.02165 -17.5988 23.6298
7 2 -5.35198 -1.66763 4.25282 14.5642 24.7866 12.4227
8 1 -6.08886 0.319776 4.4979 4.04643 92.6753 -45.3657
9 2 -5.78024 1.41858 4.75616 -7.11882 -56.3496 3.00426
10 2 -7.04328 0.194331 5.00221 1.14855 -14.1795 4.21933
11 1 -6.32211 0.557792 2.92472 -1.92785 -15.9981 -0.410519
12 2 -6.34219 -0.415317 2.38743 0.910956 11.6018 9.06638
13 2 -7.30333 1.01136 2.67707 10.8882 -2.02234 10.246
14 2 -5.5548 1.18042 2.38576 -11.1484 -12.775 19.4088
ITEM: TIMESTEP
1
ITEM: NUMBER OF ATOMS
14
ITEM: BOX BOUNDS pp pp pp
-2.2206855000000001e+01 1.8793144999999999e+01
-1.9677098999999998e+01 2.1322901000000002e+01
-1.9241968000000000e+01 2.1758032000000000e+01
ITEM: ATOMS id type x y z fx fy fz
1 1 -4.68413 -1.01364 6.24336 19.2627 28.0211 -56.7312
2 2 -3.91968 -1.79139 6.21245 -7.99597 -7.65147 13.2021
3 2 -5.62665 -1.2317 6.70964 -2.90757 -10.6341 14.9058
4 2 -4.20988 -0.123138 6.65322 -4.59554 -0.314556 8.24604
5 1 -4.98387 -0.706713 4.73351 -14.5741 -16.2784 -12.1158
6 2 -4.16629 -0.296491 4.0918 0.681809 -16.4549 21.7388
7 2 -5.34896 -1.66249 4.2554 12.9449 20.8557 10.4261
8 1 -6.08879 0.321392 4.49711 1.99814 82.9748 -45.7223
9 2 -5.78172 1.40688 4.75678 -5.17334 -48.225 4.60277
10 2 -7.04304 0.191388 5.00309 1.71478 -13.5908 3.60661
11 1 -6.32214 0.557513 2.92472 -2.51818 -16.0297 2.61012
12 2 -6.342 -0.412909 2.38931 0.827886 9.67803 7.953
13 2 -7.30107 1.01094 2.6792 9.3981 -1.34404 9.64413
14 2 -5.55712 1.17777 2.38979 -9.06363 -11.0066 17.6339
