ITEM: TIMESTEP
0
ITEM: NUMBER OF ATOMS
22
ITEM: BOX BOUNDS pp pp pp
-5.0000000000000000e+01 5.0000000000000000e+01
-5.0000000000000000e+01 5.0000000000000000e+01
-5.0000000000000000e+01 5.0000000000000000e+01
ITEM: ATOMS id type x y z fx fy fz
1 1 3.7867 1.12434 0.358527 5.7929 31.2694 77.2507
2 2 3.96141 1.70148 1.26654 1.73951 11.578 -173.471
3 1 4.89016 1.40284 1.75269 60.4859 -43.2966 37.0604
4 1 3.19024 1.63364 2.03387 -35.76 16.7145 21.6916
5 3 4.51008 3.07735 0.730807 -66.3951 -35.1023 32.5694
6 4 5.1296 3.71209 1.55172 26.1744 8.46576 -2.62688
7 5 4.1357 3.50839 -0.490519 37.8634 -16.7761 30.5231
8 6 3.55458 2.88302 -1.03026 -29.0932 -25.742 -25.9263
9 2 4.79311 4.56296 -1.20459 116.27 85.0675 25.9291
10 7 5.86198 4.60403 -0.995003 -80.3629 -15.933 -9.8568
11 2 4.69358 4.53946 -2.70442 -164.078 40.2712 27.335
12 1 3.61568 4.58204 -2.86072 75.2608 -1.25928 -2.19399
13 1 5.16574 5.31892 -3.30242 21.5018 39.2159 -4.70692
14 1 5.01787 3.60082 -3.15374 40.9519 -112.247 -41.8881
15 3 4.3055 5.95448 -0.707747 -14.5997 -37.599 65.6728
16 4 3.61543 6.65534 -1.42279 2.13872 28.6091 -2.64279
17 5 4.42359 6.12795 0.662951 3.78975 58.1444 -84.0551
18 6 4.86465 5.32311 1.08461 10.7584 -5.09765 30.0661
19 2 4.38629 7.47923 1.30136 139.788 52.796 -19.1534
20 7 4.46314 8.26053 0.545207 -16.7846 -65.9311 63.496
21 7 3.45543 7.47415 1.86843 -44.267 14.0011 26.2457
22 7 5.22511 7.65398 1.97512 -91.1741 -27.1483 -71.319
ITEM: TIMESTEP
1
ITEM: NUMBER OF ATOMS
22
ITEM: BOX BOUNDS pp pp pp
-5.0000000000000000e+01 5.0000000000000000e+01
-5.0000000000000000e+01 5.0000000000000000e+01
-5.0000000000000000e+01 5.0000000000000000e+01
ITEM: ATOMS id type x y z fx fy fz
1 1 3.76364 1.12718 0.363166 -6.683 -10.5509 8.80183
2 2 3.96072 1.70482 1.26626 49.242 18.6294 -37.4246
3 1 4.88561 1.37204 1.73737 -8.65406 -17.3291 -0.194166
4 1 3.19935 1.62107 2.04177 -3.74544 22.441 -9.46327
5 3 4.50992 3.07261 0.726821 -64.2517 -30.4663 33.7588
6 4 5.13218 3.7077 1.54605 26.1099 8.07608 -3.28622
7 5 4.13261 3.50576 -0.492993 12.8812 -42.5172 5.10633
8 6 3.52734 2.89292 -1.02042 -0.679074 4.06884 -1.78137
9 2 4.7968 4.56732 -1.20699 31.5511 71.4923 15.2722
10 7 5.86984 4.58963 -1.01673 -0.16908 -10.5267 8.50728
11 2 4.69522 4.53872 -2.69928 -32.532 -37.8628 -33.8075
12 1 3.61426 4.56867 -2.83614 0.126815 4.86156 -16.3591
13 1 5.1915 5.31705 -3.27895 -0.924549 6.40097 16.2122
14 1 5.00697 3.59145 -3.13928 5.21629 -4.72484 7.9912
15 3 4.30147 5.95199 -0.699481 -15.5728 -32.379 48.0724
16 4 3.61297 6.66244 -1.42042 6.66994 22.536 3.00715
17 5 4.42908 6.12792 0.659406 15.7091 40.9443 -53.7678
18 6 4.8646 5.33457 1.10777 -1.78826 14.5873 13.2986
19 2 4.38362 7.48184 1.30087 1.81364 -31.0316 -5.0122
20 7 4.47055 8.26009 0.542673 -12.6316 -0.688832 0.311908
21 7 3.4582 7.47944 1.8768 -0.103016 14.1031 -1.40488
22 7 5.23048 7.67338 1.95984 -1.58542 -10.0635 2.16119
