14
 Atoms. Timestep: 0
1 0.935193 -11.3164 7.48502
2 1.85303 -11.0005 6.8624
2 0.061174 -11.4378 6.86488
2 1.22741 -12.3082 7.91214
1 0.718782 -10.2021 8.55892
2 0.222358 -9.40753 8.03072
2 0.055695 -10.4221 9.41783
1 2.02808 -9.65469 9.14179
2 2.76821 -9.48921 8.38202
2 2.35052 -10.4729 9.79003
1 1.75357 -8.33803 9.78584
2 0.726675 -8.31364 10.1727
2 2.45746 -8.1401 10.6619
2 1.87481 -7.43581 9.13837
14
 Atoms. Timestep: 1
1 0.936102 -11.3163 7.48519
2 1.84487 -11.0032 6.86543
2 0.0601399 -11.4383 6.86354
2 1.2255 -12.3045 7.91151
1 0.718828 -10.2022 8.55883
2 0.22149 -9.40559 8.02993
2 0.0561879 -10.4242 9.41473
1 2.02779 -9.65513 9.14153
2 2.77014 -9.48987 8.38034
2 2.35226 -10.4707 9.79153
1 1.75389 -8.33725 9.78664
2 0.727863 -8.31326 10.1732
2 2.4531 -8.14217 10.6565
2 1.87412 -7.44002 9.13888
