LAMMPS (23 Jun 2022)
LAMMPS (23 Jun 2022)
LAMMPS (23 Jun 2022)
LAMMPS (23 Jun 2022)
LAMMPS (23 Jun 2022)
LAMMPS (23 Jun 2022)
LAMMPS (23 Jun 2022)
LAMMPS (23 Jun 2022)
  using 1 OpenMP thread(s) per MPI task
  using 1 OpenMP thread(s) per MPI task
  using 1 OpenMP thread(s) per MPI task
  using 1 OpenMP thread(s) per MPI task
  using 1 OpenMP thread(s) per MPI task
  using 1 OpenMP thread(s) per MPI task
  using 1 OpenMP thread(s) per MPI task
LAMMPS (23 Jun 2022)
  using 1 OpenMP thread(s) per MPI task
  using 1 OpenMP thread(s) per MPI task
LAMMPS (23 Jun 2022)
  using 1 OpenMP thread(s) per MPI task
LAMMPS (23 Jun 2022)
LAMMPS (23 Jun 2022)
  using 1 OpenMP thread(s) per MPI task
  using 1 OpenMP thread(s) per MPI task
LAMMPS (23 Jun 2022)
LAMMPS (23 Jun 2022)
LAMMPS (23 Jun 2022)
LAMMPS (23 Jun 2022)
LAMMPS (23 Jun 2022)
  using 1 OpenMP thread(s) per MPI task
  using 1 OpenMP thread(s) per MPI task
  using 1 OpenMP thread(s) per MPI task
  using 1 OpenMP thread(s) per MPI task
  using 1 OpenMP thread(s) per MPI task
LAMMPS (23 Jun 2022)
  using 1 OpenMP thread(s) per MPI task
Reading data file ...
Reading data file ...
Reading data file ...
Reading data file ...
Reading data file ...
Reading data file ...
Reading data file ...
Reading data file ...
Reading data file ...
Reading data file ...
Reading data file ...
Reading data file ...
Reading data file ...
Reading data file ...
  orthogonal box = (-50 -50 -50) to (50 50 50)
  orthogonal box = (-50 -50 -50) to (50 50 50)
  orthogonal box = (-50 -50 -50) to (50 50 50)
  orthogonal box = (-50 -50 -50) to (50 50 50)
  orthogonal box = (-50 -50 -50) to (50 50 50)
  orthogonal box = (-50 -50 -50) to (50 50 50)
  orthogonal box = (-50 -50 -50) to (50 50 50)
  orthogonal box = (-50 -50 -50) to (50 50 50)
  orthogonal box = (-50 -50 -50) to (50 50 50)
  orthogonal box = (-50 -50 -50) to (50 50 50)
  orthogonal box = (-50 -50 -50) to (50 50 50)
  orthogonal box = (-50 -50 -50) to (50 50 50)
Reading data file ...
Reading data file ...
Reading data file ...
Reading data file ...
  orthogonal box = (-50 -50 -50) to (50 50 50)
  orthogonal box = (-50 -50 -50) to (50 50 50)
  orthogonal box = (-50 -50 -50) to (50 50 50)
  orthogonal box = (-50 -50 -50) to (50 50 50)
  orthogonal box = (-50 -50 -50) to (50 50 50)
  orthogonal box = (-50 -50 -50) to (50 50 50)
  1 by 1 by 1 MPI processor grid
  1 by 1 by 1 MPI processor grid
  1 by 1 by 1 MPI processor grid
  1 by 1 by 1 MPI processor grid
  1 by 1 by 1 MPI processor grid
  1 by 1 by 1 MPI processor grid
  1 by 1 by 1 MPI processor grid
  1 by 1 by 1 MPI processor grid
  1 by 1 by 1 MPI processor grid
  1 by 1 by 1 MPI processor grid
  reading atoms ...
  1 by 1 by 1 MPI processor grid
  1 by 1 by 1 MPI processor grid
  reading atoms ...
  reading atoms ...
  reading atoms ...
  1 by 1 by 1 MPI processor grid
  1 by 1 by 1 MPI processor grid
  reading atoms ...
  reading atoms ...
  reading atoms ...
  reading atoms ...
  reading atoms ...
  reading atoms ...
  reading atoms ...
  reading atoms ...
  1 by 1 by 1 MPI processor grid
  1 by 1 by 1 MPI processor grid
  reading atoms ...
  reading atoms ...
  reading atoms ...
  reading atoms ...
  1 by 1 by 1 MPI processor grid
  reading atoms ...
  1 by 1 by 1 MPI processor grid
  reading atoms ...
  22 atoms
  22 atoms
  scanning bonds ...
  scanning bonds ...
  22 atoms
  22 atoms
  22 atoms
  3 = max bonds/atom
  3 = max bonds/atom
  22 atoms
  22 atoms
  22 atoms
  scanning bonds ...
  22 atoms
  scanning bonds ...
  22 atoms
  scanning angles ...
  scanning bonds ...
  22 atoms
  22 atoms
  22 atoms
  scanning angles ...
  22 atoms
  22 atoms
  22 atoms
  scanning bonds ...
  22 atoms
  scanning bonds ...
  scanning bonds ...
  3 = max bonds/atom
  scanning bonds ...
  3 = max bonds/atom
  scanning bonds ...
  6 = max angles/atom
  scanning bonds ...
  3 = max bonds/atom
  scanning bonds ...
  scanning bonds ...
  6 = max angles/atom
  scanning bonds ...
  scanning bonds ...
  scanning bonds ...
  3 = max bonds/atom
  scanning bonds ...
  scanning angles ...
  3 = max bonds/atom
  scanning angles ...
  3 = max bonds/atom
  3 = max bonds/atom
  scanning dihedrals ...
  3 = max bonds/atom
  scanning angles ...
  3 = max bonds/atom
  scanning dihedrals ...
  3 = max bonds/atom
  3 = max bonds/atom
  3 = max bonds/atom
  scanning angles ...
  3 = max bonds/atom
  3 = max bonds/atom
  scanning angles ...
  3 = max bonds/atom
  6 = max angles/atom
  scanning angles ...
  scanning angles ...
  6 = max angles/atom
  scanning angles ...
  scanning angles ...
  6 = max angles/atom
  scanning angles ...
  20 = max dihedrals/atom
  scanning angles ...
  scanning angles ...
  scanning angles ...
  scanning angles ...
  20 = max dihedrals/atom
  6 = max angles/atom
  scanning angles ...
  scanning dihedrals ...
  6 = max angles/atom
  scanning dihedrals ...
  6 = max angles/atom
  6 = max angles/atom
  scanning dihedrals ...
  6 = max angles/atom
  6 = max angles/atom
  6 = max angles/atom
  6 = max angles/atom
  6 = max angles/atom
  6 = max angles/atom
  scanning dihedrals ...
  6 = max angles/atom
  scanning dihedrals ...
  6 = max angles/atom
  scanning dihedrals ...
  scanning dihedrals ...
  scanning dihedrals ...
  20 = max dihedrals/atom
  scanning dihedrals ...
  scanning dihedrals ...
  20 = max dihedrals/atom
  scanning dihedrals ...
  scanning dihedrals ...
  scanning dihedrals ...
  20 = max dihedrals/atom
  scanning dihedrals ...
  scanning dihedrals ...
  20 = max dihedrals/atom
  20 = max dihedrals/atom
  20 = max dihedrals/atom
  20 = max dihedrals/atom
  20 = max dihedrals/atom
  20 = max dihedrals/atom
  20 = max dihedrals/atom
  20 = max dihedrals/atom
  20 = max dihedrals/atom
  20 = max dihedrals/atom
  20 = max dihedrals/atom
  20 = max dihedrals/atom
  22 atoms
  scanning bonds ...
  3 = max bonds/atom
  scanning angles ...
  6 = max angles/atom
  scanning dihedrals ...
  20 = max dihedrals/atom
  reading bonds ...
  21 bonds
  reading angles ...
  36 angles
  reading dihedrals ...
  reading bonds ...
  reading bonds ...
  66 dihedrals
  21 bonds
  21 bonds
  reading angles ...
  reading angles ...
Finding 1-2 1-3 1-4 neighbors ...
  special bond factors lj:    0        0        0       
  special bond factors coul:  0        0        0       
  36 angles
  36 angles
  reading dihedrals ...
  reading dihedrals ...
  reading bonds ...
  21 bonds
  reading angles ...
  66 dihedrals
  66 dihedrals
  36 angles
  reading dihedrals ...
Finding 1-2 1-3 1-4 neighbors ...
  special bond factors lj:    0        0        0       
  special bond factors coul:  0        0        0       
Finding 1-2 1-3 1-4 neighbors ...
  special bond factors lj:    0        0        0       
  special bond factors coul:  0        0        0       
  66 dihedrals
  reading bonds ...
Finding 1-2 1-3 1-4 neighbors ...
  special bond factors lj:    0        0        0       
  special bond factors coul:  0        0        0       
  21 bonds
  reading angles ...
  reading bonds ...
  36 angles
  reading dihedrals ...
  21 bonds
  reading angles ...
  reading bonds ...
  36 angles
  66 dihedrals
  reading dihedrals ...
  21 bonds
  reading angles ...
Finding 1-2 1-3 1-4 neighbors ...
  special bond factors lj:    0        0        0       
  special bond factors coul:  0        0        0       
  reading bonds ...
  36 angles
  66 dihedrals
  reading dihedrals ...
  reading bonds ...
  21 bonds
  reading angles ...
Finding 1-2 1-3 1-4 neighbors ...
  special bond factors lj:    0        0        0       
  special bond factors coul:  0        0        0       
  21 bonds
  reading angles ...
  66 dihedrals
  36 angles
  reading dihedrals ...
  36 angles
  reading dihedrals ...
Finding 1-2 1-3 1-4 neighbors ...
  special bond factors lj:    0        0        0       
  special bond factors coul:  0        0        0       
  66 dihedrals
  66 dihedrals
Finding 1-2 1-3 1-4 neighbors ...
  special bond factors lj:    0        0        0       
  special bond factors coul:  0        0        0       
Finding 1-2 1-3 1-4 neighbors ...
  special bond factors lj:    0        0        0       
  special bond factors coul:  0        0        0       
  reading bonds ...
  21 bonds
  reading angles ...
  reading bonds ...
  36 angles
  reading dihedrals ...
  21 bonds
  reading angles ...
  36 angles
  66 dihedrals
  reading dihedrals ...
  reading bonds ...
Finding 1-2 1-3 1-4 neighbors ...
  special bond factors lj:    0        0        0       
  special bond factors coul:  0        0        0       
  reading bonds ...
  66 dihedrals
  21 bonds
  reading angles ...
  21 bonds
  reading angles ...
Finding 1-2 1-3 1-4 neighbors ...
  special bond factors lj:    0        0        0       
  special bond factors coul:  0        0        0       
  36 angles
  reading bonds ...
  reading dihedrals ...
  36 angles
  reading dihedrals ...
  21 bonds
  reading bonds ...
  reading angles ...
  21 bonds
  66 dihedrals
  reading angles ...
  66 dihedrals
  36 angles
  reading bonds ...
  reading bonds ...
  reading dihedrals ...
  reading bonds ...
  36 angles
Finding 1-2 1-3 1-4 neighbors ...
  special bond factors lj:    0        0        0       
  special bond factors coul:  0        0        0       
Finding 1-2 1-3 1-4 neighbors ...
  special bond factors lj:    0        0        0       
  special bond factors coul:  0        0        0       
  21 bonds
  21 bonds
  reading dihedrals ...
  21 bonds
  reading angles ...
  reading angles ...
  reading angles ...
  66 dihedrals
  36 angles
  36 angles
  reading dihedrals ...
  36 angles
  66 dihedrals
  reading dihedrals ...
Finding 1-2 1-3 1-4 neighbors ...
  special bond factors lj:    0        0        0       
  special bond factors coul:  0        0        0       
  reading dihedrals ...
Finding 1-2 1-3 1-4 neighbors ...
  special bond factors lj:    0        0        0       
  special bond factors coul:  0        0        0       
  66 dihedrals
  66 dihedrals
  66 dihedrals
Finding 1-2 1-3 1-4 neighbors ...
  special bond factors lj:    0        0        0       
  special bond factors coul:  0        0        0       
Finding 1-2 1-3 1-4 neighbors ...
  special bond factors lj:    0        0        0       
  special bond factors coul:  0        0        0       
Finding 1-2 1-3 1-4 neighbors ...
  special bond factors lj:    0        0        0       
  special bond factors coul:  0        0        0       
     4 = max # of 1-2 neighbors
     4 = max # of 1-2 neighbors
     7 = max # of 1-3 neighbors
     4 = max # of 1-2 neighbors
     4 = max # of 1-2 neighbors
     4 = max # of 1-2 neighbors
     7 = max # of 1-3 neighbors
     4 = max # of 1-2 neighbors
     4 = max # of 1-2 neighbors
     4 = max # of 1-2 neighbors
     7 = max # of 1-3 neighbors
    13 = max # of 1-4 neighbors
     4 = max # of 1-2 neighbors
     4 = max # of 1-2 neighbors
     4 = max # of 1-2 neighbors
     4 = max # of 1-2 neighbors
     4 = max # of 1-2 neighbors
     7 = max # of 1-3 neighbors
     4 = max # of 1-2 neighbors
     4 = max # of 1-2 neighbors
     4 = max # of 1-2 neighbors
     4 = max # of 1-2 neighbors
     4 = max # of 1-2 neighbors
     7 = max # of 1-3 neighbors
    13 = max # of 1-4 neighbors
     7 = max # of 1-3 neighbors
     7 = max # of 1-3 neighbors
     7 = max # of 1-3 neighbors
    13 = max # of 1-4 neighbors
    16 = max # of special neighbors
     7 = max # of 1-3 neighbors
     7 = max # of 1-3 neighbors
     7 = max # of 1-3 neighbors
     7 = max # of 1-3 neighbors
     7 = max # of 1-3 neighbors
    13 = max # of 1-4 neighbors
     7 = max # of 1-3 neighbors
     7 = max # of 1-3 neighbors
     7 = max # of 1-3 neighbors
     7 = max # of 1-3 neighbors
     7 = max # of 1-3 neighbors
    13 = max # of 1-4 neighbors
    16 = max # of special neighbors
    13 = max # of 1-4 neighbors
    16 = max # of special neighbors
    13 = max # of 1-4 neighbors
    13 = max # of 1-4 neighbors
    16 = max # of special neighbors
    13 = max # of 1-4 neighbors
    13 = max # of 1-4 neighbors
    13 = max # of 1-4 neighbors
    13 = max # of 1-4 neighbors
    13 = max # of 1-4 neighbors
    16 = max # of special neighbors
    13 = max # of 1-4 neighbors
    13 = max # of 1-4 neighbors
    13 = max # of 1-4 neighbors
  special bonds CPU = 0.015 seconds
    13 = max # of 1-4 neighbors
    13 = max # of 1-4 neighbors
    16 = max # of special neighbors
    16 = max # of special neighbors
    16 = max # of special neighbors
    16 = max # of special neighbors
    16 = max # of special neighbors
    16 = max # of special neighbors
    16 = max # of special neighbors
    16 = max # of special neighbors
  special bonds CPU = 0.015 seconds
    16 = max # of special neighbors
  special bonds CPU = 0.015 seconds
    16 = max # of special neighbors
    16 = max # of special neighbors
  read_data CPU = 0.024 seconds
  special bonds CPU = 0.015 seconds
    16 = max # of special neighbors
    16 = max # of special neighbors
  special bonds CPU = 0.015 seconds
  read_data CPU = 0.025 seconds
  read_data CPU = 0.025 seconds
  special bonds CPU = 0.015 seconds
  special bonds CPU = 0.015 seconds
  special bonds CPU = 0.015 seconds
  special bonds CPU = 0.014 seconds
  read_data CPU = 0.023 seconds
  special bonds CPU = 0.014 seconds
  special bonds CPU = 0.014 seconds
  special bonds CPU = 0.014 seconds
  special bonds CPU = 0.014 seconds
  read_data CPU = 0.025 seconds
  special bonds CPU = 0.014 seconds
  read_data CPU = 0.025 seconds
  read_data CPU = 0.023 seconds
  special bonds CPU = 0.014 seconds
  read_data CPU = 0.025 seconds
  special bonds CPU = 0.015 seconds
  read_data CPU = 0.023 seconds
  read_data CPU = 0.023 seconds
  special bonds CPU = 0.014 seconds
  read_data CPU = 0.025 seconds
  special bonds CPU = 0.014 seconds
  read_data CPU = 0.025 seconds
  read_data CPU = 0.025 seconds
  read_data CPU = 0.025 seconds
  read_data CPU = 0.025 seconds
  read_data CPU = 0.025 seconds
  read_data CPU = 0.023 seconds
  read_data CPU = 0.025 seconds
LAMMPS (23 Jun 2022)
Finding SHAKE clusters ...
Finding SHAKE clusters ...
Finding SHAKE clusters ...
Finding SHAKE clusters ...
Finding SHAKE clusters ...
Finding SHAKE clusters ...
Finding SHAKE clusters ...
Finding SHAKE clusters ...
Finding SHAKE clusters ...
Finding SHAKE clusters ...
Finding SHAKE clusters ...
Finding SHAKE clusters ...
Finding SHAKE clusters ...
Finding SHAKE clusters ...
Finding SHAKE clusters ...
Finding SHAKE clusters ...
Finding SHAKE clusters ...
Finding SHAKE clusters ...
       3 = # of size 2 clusters
       0 = # of size 3 clusters
       3 = # of size 4 clusters
       0 = # of frozen angles
       3 = # of size 2 clusters
       0 = # of size 3 clusters
       3 = # of size 4 clusters
       0 = # of frozen angles
       3 = # of size 2 clusters
       0 = # of size 3 clusters
       3 = # of size 4 clusters
       0 = # of frozen angles
       3 = # of size 2 clusters
       0 = # of size 3 clusters
       3 = # of size 4 clusters
       0 = # of frozen angles
       3 = # of size 2 clusters
       0 = # of size 3 clusters
       3 = # of size 4 clusters
       0 = # of frozen angles
       3 = # of size 2 clusters
       0 = # of size 3 clusters
       3 = # of size 4 clusters
       0 = # of frozen angles
       3 = # of size 2 clusters
       0 = # of size 3 clusters
       3 = # of size 4 clusters
       0 = # of frozen angles
       3 = # of size 2 clusters
       0 = # of size 3 clusters
       3 = # of size 4 clusters
       0 = # of frozen angles
       3 = # of size 2 clusters
       0 = # of size 3 clusters
       3 = # of size 4 clusters
       0 = # of frozen angles
       3 = # of size 2 clusters
       0 = # of size 3 clusters
       3 = # of size 4 clusters
       0 = # of frozen angles
       3 = # of size 2 clusters
       0 = # of size 3 clusters
       3 = # of size 4 clusters
       0 = # of frozen angles
       3 = # of size 2 clusters
       0 = # of size 3 clusters
       3 = # of size 4 clusters
       0 = # of frozen angles
       3 = # of size 2 clusters
       0 = # of size 3 clusters
       3 = # of size 4 clusters
       0 = # of frozen angles
       3 = # of size 2 clusters
       0 = # of size 3 clusters
       3 = # of size 4 clusters
       0 = # of frozen angles
       3 = # of size 2 clusters
       0 = # of size 3 clusters
       3 = # of size 4 clusters
       0 = # of frozen angles
  find clusters CPU = 0.000 seconds
  find clusters CPU = 0.000 seconds
       3 = # of size 2 clusters
       0 = # of size 3 clusters
       3 = # of size 4 clusters
       0 = # of frozen angles
  find clusters CPU = 0.000 seconds
  find clusters CPU = 0.000 seconds
       3 = # of size 2 clusters
       0 = # of size 3 clusters
       3 = # of size 4 clusters
       0 = # of frozen angles
  find clusters CPU = 0.000 seconds
  find clusters CPU = 0.000 seconds
       3 = # of size 2 clusters
       0 = # of size 3 clusters
       3 = # of size 4 clusters
       0 = # of frozen angles
  find clusters CPU = 0.000 seconds
  find clusters CPU = 0.000 seconds
  find clusters CPU = 0.000 seconds
  find clusters CPU = 0.000 seconds
  find clusters CPU = 0.000 seconds
  find clusters CPU = 0.000 seconds
  find clusters CPU = 0.000 seconds
  find clusters CPU = 0.000 seconds
  find clusters CPU = 0.000 seconds
  find clusters CPU = 0.000 seconds
  find clusters CPU = 0.000 seconds
  find clusters CPU = 0.000 seconds
  using 1 OpenMP thread(s) per MPI task
Finding 1-2 1-3 1-4 neighbors ...
  special bond factors lj:    0        0        0.5     
  special bond factors coul:  0        0        0.8333333333333334
Finding 1-2 1-3 1-4 neighbors ...
  special bond factors lj:    0        0        0.5     
  special bond factors coul:  0        0        0.8333333333333334
Finding 1-2 1-3 1-4 neighbors ...
  special bond factors lj:    0        0        0.5     
  special bond factors coul:  0        0        0.8333333333333334
Finding 1-2 1-3 1-4 neighbors ...
  special bond factors lj:    0        0        0.5     
  special bond factors coul:  0        0        0.8333333333333334
Finding 1-2 1-3 1-4 neighbors ...
  special bond factors lj:    0        0        0.5     
  special bond factors coul:  0        0        0.8333333333333334
Finding 1-2 1-3 1-4 neighbors ...
  special bond factors lj:    0        0        0.5     
  special bond factors coul:  0        0        0.8333333333333334
Finding 1-2 1-3 1-4 neighbors ...
  special bond factors lj:    0        0        0.5     
  special bond factors coul:  0        0        0.8333333333333334
     4 = max # of 1-2 neighbors
Finding 1-2 1-3 1-4 neighbors ...
  special bond factors lj:    0        0        0.5     
  special bond factors coul:  0        0        0.8333333333333334
Finding 1-2 1-3 1-4 neighbors ...
  special bond factors lj:    0        0        0.5     
  special bond factors coul:  0        0        0.8333333333333334
     4 = max # of 1-2 neighbors
Finding 1-2 1-3 1-4 neighbors ...
  special bond factors lj:    0        0        0.5     
  special bond factors coul:  0        0        0.8333333333333334
     4 = max # of 1-2 neighbors
Finding 1-2 1-3 1-4 neighbors ...
  special bond factors lj:    0        0        0.5     
  special bond factors coul:  0        0        0.8333333333333334
Finding 1-2 1-3 1-4 neighbors ...
  special bond factors lj:    0        0        0.5     
  special bond factors coul:  0        0        0.8333333333333334
Finding 1-2 1-3 1-4 neighbors ...
  special bond factors lj:    0        0        0.5     
  special bond factors coul:  0        0        0.8333333333333334
Finding 1-2 1-3 1-4 neighbors ...
  special bond factors lj:    0        0        0.5     
  special bond factors coul:  0        0        0.8333333333333334
     4 = max # of 1-2 neighbors
Finding 1-2 1-3 1-4 neighbors ...
  special bond factors lj:    0        0        0.5     
  special bond factors coul:  0        0        0.8333333333333334
Finding 1-2 1-3 1-4 neighbors ...
  special bond factors lj:    0        0        0.5     
  special bond factors coul:  0        0        0.8333333333333334
     4 = max # of 1-2 neighbors
Finding 1-2 1-3 1-4 neighbors ...
  special bond factors lj:    0        0        0.5     
  special bond factors coul:  0        0        0.8333333333333334
     7 = max # of 1-3 neighbors
     4 = max # of 1-2 neighbors
     7 = max # of 1-3 neighbors
     4 = max # of 1-2 neighbors
     4 = max # of 1-2 neighbors
     7 = max # of 1-3 neighbors
     4 = max # of 1-2 neighbors
     4 = max # of 1-2 neighbors
     4 = max # of 1-2 neighbors
     4 = max # of 1-2 neighbors
     4 = max # of 1-2 neighbors
     7 = max # of 1-3 neighbors
     4 = max # of 1-2 neighbors
     4 = max # of 1-2 neighbors
     4 = max # of 1-2 neighbors
    13 = max # of 1-4 neighbors
     7 = max # of 1-3 neighbors
     4 = max # of 1-2 neighbors
    13 = max # of 1-4 neighbors
     7 = max # of 1-3 neighbors
     7 = max # of 1-3 neighbors
    13 = max # of 1-4 neighbors
     7 = max # of 1-3 neighbors
     7 = max # of 1-3 neighbors
     7 = max # of 1-3 neighbors
     7 = max # of 1-3 neighbors
     7 = max # of 1-3 neighbors
    13 = max # of 1-4 neighbors
     7 = max # of 1-3 neighbors
     7 = max # of 1-3 neighbors
     7 = max # of 1-3 neighbors
    16 = max # of special neighbors
    13 = max # of 1-4 neighbors
     7 = max # of 1-3 neighbors
    16 = max # of special neighbors
    13 = max # of 1-4 neighbors
    13 = max # of 1-4 neighbors
    16 = max # of special neighbors
    13 = max # of 1-4 neighbors
    13 = max # of 1-4 neighbors
    13 = max # of 1-4 neighbors
    13 = max # of 1-4 neighbors
    13 = max # of 1-4 neighbors
    16 = max # of special neighbors
    13 = max # of 1-4 neighbors
    13 = max # of 1-4 neighbors
    13 = max # of 1-4 neighbors
    16 = max # of special neighbors
    13 = max # of 1-4 neighbors
    16 = max # of special neighbors
    16 = max # of special neighbors
    16 = max # of special neighbors
    16 = max # of special neighbors
    16 = max # of special neighbors
    16 = max # of special neighbors
    16 = max # of special neighbors
    16 = max # of special neighbors
    16 = max # of special neighbors
    16 = max # of special neighbors
  special bonds CPU = 0.000 seconds
    16 = max # of special neighbors
  special bonds CPU = 0.000 seconds
  special bonds CPU = 0.001 seconds
  special bonds CPU = 0.001 seconds
     7 = max # of 1-3 neighbors
  special bonds CPU = 0.001 seconds
  special bonds CPU = 0.001 seconds
  special bonds CPU = 0.001 seconds
  special bonds CPU = 0.001 seconds
  special bonds CPU = 0.001 seconds
  special bonds CPU = 0.001 seconds
Reading data file ...
  special bonds CPU = 0.001 seconds
    13 = max # of 1-4 neighbors
Finding 1-2 1-3 1-4 neighbors ...
  special bond factors lj:    0        0        0.5     
  special bond factors coul:  0        0        0.8333333333333334
  special bonds CPU = 0.001 seconds
  special bonds CPU = 0.001 seconds
  special bonds CPU = 0.001 seconds
  special bonds CPU = 0.001 seconds
    16 = max # of special neighbors
  special bonds CPU = 0.001 seconds
     4 = max # of 1-2 neighbors
     7 = max # of 1-3 neighbors
    13 = max # of 1-4 neighbors
    16 = max # of special neighbors
  special bonds CPU = 0.001 seconds
  special bonds CPU = 0.000 seconds
Generated 21 of 21 mixed pair_coeff terms from arithmetic mixing rule
Generated 21 of 21 mixed pair_coeff terms from arithmetic mixing rule
Generated 21 of 21 mixed pair_coeff terms from arithmetic mixing rule
Generated 21 of 21 mixed pair_coeff terms from arithmetic mixing rule
Generated 21 of 21 mixed pair_coeff terms from arithmetic mixing rule
Generated 21 of 21 mixed pair_coeff terms from arithmetic mixing rule
Generated 21 of 21 mixed pair_coeff terms from arithmetic mixing rule
Generated 21 of 21 mixed pair_coeff terms from arithmetic mixing rule
Generated 21 of 21 mixed pair_coeff terms from arithmetic mixing rule
Generated 21 of 21 mixed pair_coeff terms from arithmetic mixing rule
Generated 21 of 21 mixed pair_coeff terms from arithmetic mixing rule
Generated 21 of 21 mixed pair_coeff terms from arithmetic mixing rule
Generated 21 of 21 mixed pair_coeff terms from arithmetic mixing rule
Generated 21 of 21 mixed pair_coeff terms from arithmetic mixing rule
Generated 21 of 21 mixed pair_coeff terms from arithmetic mixing rule
Generated 21 of 21 mixed pair_coeff terms from arithmetic mixing rule
Generated 21 of 21 mixed pair_coeff terms from arithmetic mixing rule
Generated 21 of 21 mixed pair_coeff terms from arithmetic mixing rule
  orthogonal box = (-50 -50 -50) to (50 50 50)
  1 by 1 by 1 MPI processor grid
  reading atoms ...
  22 atoms
  scanning bonds ...
  3 = max bonds/atom
  scanning angles ...
  6 = max angles/atom
  scanning dihedrals ...
  20 = max dihedrals/atom
LAMMPS (23 Jun 2022)
  reading bonds ...
  21 bonds
  reading angles ...
  36 angles
  reading dihedrals ...
  66 dihedrals
Finding 1-2 1-3 1-4 neighbors ...
  special bond factors lj:    0        0        0       
  special bond factors coul:  0        0        0       
     4 = max # of 1-2 neighbors
     7 = max # of 1-3 neighbors
    13 = max # of 1-4 neighbors
    16 = max # of special neighbors
  special bonds CPU = 0.000 seconds
  read_data CPU = 0.004 seconds
  using 1 OpenMP thread(s) per MPI task
Reading data file ...
LAMMPS (23 Jun 2022)
Neighbor list info ...
  update every 1 steps, delay 10 steps, check yes
  max neighbors/atom: 22, page size: 2200
  master list distance cutoff = 14
  ghost atom cutoff = 14
  binsize = 7, bins = 15 15 15
  1 neighbor lists, perpetual/occasional/extra = 1 0 0
  (1) pair lj/cut/coul/cut, perpetual
      attributes: half, newton on
      pair build: half/bin/newton
      stencil: half/bin/3d
      bin: standard
Neighbor list info ...
  update every 1 steps, delay 10 steps, check yes
  max neighbors/atom: 22, page size: 2200
  master list distance cutoff = 14
  ghost atom cutoff = 14
  binsize = 7, bins = 15 15 15
  1 neighbor lists, perpetual/occasional/extra = 1 0 0
  (1) pair lj/cut/coul/cut, perpetual
      attributes: half, newton on
      pair build: half/bin/newton
      stencil: half/bin/3d
      bin: standard
Neighbor list info ...
  update every 1 steps, delay 10 steps, check yes
  max neighbors/atom: 22, page size: 2200
  master list distance cutoff = 14
  ghost atom cutoff = 14
  binsize = 7, bins = 15 15 15
  1 neighbor lists, perpetual/occasional/extra = 1 0 0
  (1) pair lj/cut/coul/cut, perpetual
      attributes: half, newton on
      pair build: half/bin/newton
      stencil: half/bin/3d
      bin: standard
Neighbor list info ...
  update every 1 steps, delay 10 steps, check yes
  max neighbors/atom: 22, page size: 2200
  master list distance cutoff = 14
  ghost atom cutoff = 14
  binsize = 7, bins = 15 15 15
  1 neighbor lists, perpetual/occasional/extra = 1 0 0
  (1) pair lj/cut/coul/cut, perpetual
      attributes: half, newton on
      pair build: half/bin/newton
      stencil: half/bin/3d
      bin: standard
Neighbor list info ...
  update every 1 steps, delay 10 steps, check yes
  max neighbors/atom: 22, page size: 2200
  master list distance cutoff = 14
  ghost atom cutoff = 14
  binsize = 7, bins = 15 15 15
  1 neighbor lists, perpetual/occasional/extra = 1 0 0
  (1) pair lj/cut/coul/cut, perpetual
      attributes: half, newton on
      pair build: half/bin/newton
      stencil: half/bin/3d
      bin: standard
Neighbor list info ...
  update every 1 steps, delay 10 steps, check yes
  max neighbors/atom: 22, page size: 2200
  master list distance cutoff = 14
  ghost atom cutoff = 14
  binsize = 7, bins = 15 15 15
  1 neighbor lists, perpetual/occasional/extra = 1 0 0
  (1) pair lj/cut/coul/cut, perpetual
      attributes: half, newton on
      pair build: half/bin/newton
      stencil: half/bin/3d
      bin: standard
Neighbor list info ...
  update every 1 steps, delay 10 steps, check yes
  max neighbors/atom: 22, page size: 2200
  master list distance cutoff = 14
  ghost atom cutoff = 14
  binsize = 7, bins = 15 15 15
  1 neighbor lists, perpetual/occasional/extra = 1 0 0
  (1) pair lj/cut/coul/cut, perpetual
      attributes: half, newton on
      pair build: half/bin/newton
      stencil: half/bin/3d
      bin: standard
Neighbor list info ...
  update every 1 steps, delay 10 steps, check yes
  max neighbors/atom: 22, page size: 2200
  master list distance cutoff = 14
  ghost atom cutoff = 14
  binsize = 7, bins = 15 15 15
  1 neighbor lists, perpetual/occasional/extra = 1 0 0
  (1) pair lj/cut/coul/cut, perpetual
      attributes: half, newton on
      pair build: half/bin/newton
      stencil: half/bin/3d
      bin: standard
Neighbor list info ...
  update every 1 steps, delay 10 steps, check yes
  max neighbors/atom: 22, page size: 2200
  master list distance cutoff = 14
  ghost atom cutoff = 14
  binsize = 7, bins = 15 15 15
  1 neighbor lists, perpetual/occasional/extra = 1 0 0
  (1) pair lj/cut/coul/cut, perpetual
      attributes: half, newton on
      pair build: half/bin/newton
      stencil: half/bin/3d
      bin: standard
Neighbor list info ...
  update every 1 steps, delay 10 steps, check yes
  max neighbors/atom: 22, page size: 2200
  master list distance cutoff = 14
  ghost atom cutoff = 14
  binsize = 7, bins = 15 15 15
  1 neighbor lists, perpetual/occasional/extra = 1 0 0
  (1) pair lj/cut/coul/cut, perpetual
      attributes: half, newton on
      pair build: half/bin/newton
      stencil: half/bin/3d
      bin: standard
Neighbor list info ...
  update every 1 steps, delay 10 steps, check yes
  max neighbors/atom: 22, page size: 2200
  master list distance cutoff = 14
  ghost atom cutoff = 14
  binsize = 7, bins = 15 15 15
  1 neighbor lists, perpetual/occasional/extra = 1 0 0
  (1) pair lj/cut/coul/cut, perpetual
      attributes: half, newton on
      pair build: half/bin/newton
      stencil: half/bin/3d
      bin: standard
Neighbor list info ...
  update every 1 steps, delay 10 steps, check yes
  max neighbors/atom: 22, page size: 2200
  master list distance cutoff = 14
  ghost atom cutoff = 14
  binsize = 7, bins = 15 15 15
  1 neighbor lists, perpetual/occasional/extra = 1 0 0
  (1) pair lj/cut/coul/cut, perpetual
      attributes: half, newton on
      pair build: half/bin/newton
      stencil: half/bin/3d
      bin: standard
Neighbor list info ...
  update every 1 steps, delay 10 steps, check yes
  max neighbors/atom: 22, page size: 2200
  master list distance cutoff = 14
  ghost atom cutoff = 14
  binsize = 7, bins = 15 15 15
  1 neighbor lists, perpetual/occasional/extra = 1 0 0
  (1) pair lj/cut/coul/cut, perpetual
      attributes: half, newton on
      pair build: half/bin/newton
      stencil: half/bin/3d
      bin: standard
Neighbor list info ...
  update every 1 steps, delay 10 steps, check yes
  max neighbors/atom: 22, page size: 2200
  master list distance cutoff = 14
  ghost atom cutoff = 14
  binsize = 7, bins = 15 15 15
  1 neighbor lists, perpetual/occasional/extra = 1 0 0
  (1) pair lj/cut/coul/cut, perpetual
      attributes: half, newton on
      pair build: half/bin/newton
      stencil: half/bin/3d
      bin: standard
Neighbor list info ...
  update every 1 steps, delay 10 steps, check yes
  max neighbors/atom: 22, page size: 2200
  master list distance cutoff = 14
  ghost atom cutoff = 14
  binsize = 7, bins = 15 15 15
  1 neighbor lists, perpetual/occasional/extra = 1 0 0
  (1) pair lj/cut/coul/cut, perpetual
      attributes: half, newton on
      pair build: half/bin/newton
      stencil: half/bin/3d
      bin: standard
  orthogonal box = (-50 -50 -50) to (50 50 50)
  1 by 1 by 1 MPI processor grid
Neighbor list info ...
  update every 1 steps, delay 10 steps, check yes
  max neighbors/atom: 22, page size: 2200
  master list distance cutoff = 14
  ghost atom cutoff = 14
  binsize = 7, bins = 15 15 15
  1 neighbor lists, perpetual/occasional/extra = 1 0 0
  (1) pair lj/cut/coul/cut, perpetual
      attributes: half, newton on
      pair build: half/bin/newton
      stencil: half/bin/3d
      bin: standard
  reading atoms ...
Neighbor list info ...
  update every 1 steps, delay 10 steps, check yes
  max neighbors/atom: 22, page size: 2200
  master list distance cutoff = 14
  ghost atom cutoff = 14
  binsize = 7, bins = 15 15 15
  1 neighbor lists, perpetual/occasional/extra = 1 0 0
  (1) pair lj/cut/coul/cut, perpetual
      attributes: half, newton on
      pair build: half/bin/newton
      stencil: half/bin/3d
      bin: standard
  22 atoms
  scanning bonds ...
  3 = max bonds/atom
  scanning angles ...
Neighbor list info ...
  update every 1 steps, delay 10 steps, check yes
  max neighbors/atom: 22, page size: 2200
  master list distance cutoff = 14
  ghost atom cutoff = 14
  binsize = 7, bins = 15 15 15
  1 neighbor lists, perpetual/occasional/extra = 1 0 0
  (1) pair lj/cut/coul/cut, perpetual
      attributes: half, newton on
      pair build: half/bin/newton
      stencil: half/bin/3d
      bin: standard
  6 = max angles/atom
  scanning dihedrals ...
  20 = max dihedrals/atom
  reading bonds ...
  21 bonds
  reading angles ...
  36 angles
  reading dihedrals ...
  66 dihedrals
Finding 1-2 1-3 1-4 neighbors ...
  special bond factors lj:    0        0        0       
  special bond factors coul:  0        0        0       
     4 = max # of 1-2 neighbors
     7 = max # of 1-3 neighbors
    13 = max # of 1-4 neighbors
    16 = max # of special neighbors
  special bonds CPU = 0.000 seconds
  read_data CPU = 0.004 seconds
  using 1 OpenMP thread(s) per MPI task
Reading data file ...
Finding SHAKE clusters ...
       3 = # of size 2 clusters
       0 = # of size 3 clusters
       3 = # of size 4 clusters
       0 = # of frozen angles
  find clusters CPU = 0.000 seconds
Finding 1-2 1-3 1-4 neighbors ...
  special bond factors lj:    0        0        0.5     
  special bond factors coul:  0        0        0.8333333333333334
     4 = max # of 1-2 neighbors
     7 = max # of 1-3 neighbors
    13 = max # of 1-4 neighbors
    16 = max # of special neighbors
  special bonds CPU = 0.000 seconds
Generated 21 of 21 mixed pair_coeff terms from arithmetic mixing rule
Neighbor list info ...
  update every 1 steps, delay 10 steps, check yes
  max neighbors/atom: 22, page size: 2200
  master list distance cutoff = 14
  ghost atom cutoff = 14
  binsize = 7, bins = 15 15 15
  1 neighbor lists, perpetual/occasional/extra = 1 0 0
  (1) pair lj/cut/coul/cut, perpetual
      attributes: half, newton on
      pair build: half/bin/newton
      stencil: half/bin/3d
      bin: standard
  orthogonal box = (-50 -50 -50) to (50 50 50)
  1 by 1 by 1 MPI processor grid
  reading atoms ...
  22 atoms
  scanning bonds ...
  3 = max bonds/atom
  scanning angles ...
  6 = max angles/atom
  scanning dihedrals ...
  20 = max dihedrals/atom
  reading bonds ...
  21 bonds
  reading angles ...
  36 angles
  reading dihedrals ...
  66 dihedrals
Finding 1-2 1-3 1-4 neighbors ...
  special bond factors lj:    0        0        0       
  special bond factors coul:  0        0        0       
     4 = max # of 1-2 neighbors
     7 = max # of 1-3 neighbors
    13 = max # of 1-4 neighbors
    16 = max # of special neighbors
  special bonds CPU = 0.000 seconds
  read_data CPU = 0.004 seconds
Setting up Verlet run ...
  Unit style    : real
  Current step  : 0
  Time step     : 1
Setting up Verlet run ...
  Unit style    : real
  Current step  : 0
  Time step     : 1
Setting up Verlet run ...
  Unit style    : real
  Current step  : 0
  Time step     : 1
Setting up Verlet run ...
  Unit style    : real
  Current step  : 0
  Time step     : 1
Setting up Verlet run ...
  Unit style    : real
  Current step  : 0
  Time step     : 1
Setting up Verlet run ...
  Unit style    : real
  Current step  : 0
  Time step     : 1
Setting up Verlet run ...
  Unit style    : real
  Current step  : 0
  Time step     : 1
Setting up Verlet run ...
  Unit style    : real
  Current step  : 0
  Time step     : 1
Setting up Verlet run ...
  Unit style    : real
  Current step  : 0
  Time step     : 1
Per MPI rank memory allocation (min/avg/max) = 17.85 | 17.85 | 17.85 Mbytes
     Time         Step         TotEng         KinEng         PotEng          Temp          Press          Volume    
 0                      0   46.097901      18.779103      27.318798      370.58824     -3.924291       1000000      
Per MPI rank memory allocation (min/avg/max) = 17.85 | 17.85 | 17.85 Mbytes
     Time         Step         TotEng         KinEng         PotEng          Temp          Press          Volume    
 0                      0   46.563534      18.779103      27.78443       370.58824     -3.7778066      1000000      
 1                      1   40.243003      16.017174      24.225829      316.08412      0.98850845     1000000      
Loop time of 0.000191547 on 1 procs for 1 steps with 22 atoms

Performance: 451.064 ns/day, 0.053 hours/ns, 5220.651 timesteps/s
97.6% CPU use with 1 MPI tasks x 1 OpenMP threads

MPI task timing breakdown:
Section |  min time  |  avg time  |  max time  |%varavg| %total
---------------------------------------------------------------
Pair    | 6.382e-06  | 6.382e-06  | 6.382e-06  |   0.0 |  3.33
Bond    | 1.1468e-05 | 1.1468e-05 | 1.1468e-05 |   0.0 |  5.99
Neigh   | 0          | 0          | 0          |   0.0 |  0.00
Comm    | 5.61e-07   | 5.61e-07   | 5.61e-07   |   0.0 |  0.29
Output  | 0.00012686 | 0.00012686 | 0.00012686 |   0.0 | 66.23
Per MPI rank memory allocation (min/avg/max) = 17.85 | 17.85 | 17.85 Mbytes
Modify  | 4.3261e-05 | 4.3261e-05 | 4.3261e-05 |   0.0 | 22.59
     Time         Step         TotEng         KinEng         PotEng          Temp          Press          Volume    
Other   |            | 3.012e-06  |            |       |  1.57
Per MPI rank memory allocation (min/avg/max) = 17.85 | 17.85 | 17.85 Mbytes
 0                      0   42.854342      18.779103      24.075239      370.58824      7.2786751      1000000      

Nlocal:             22 ave          22 max          22 min
Histogram: 1 0 0 0 0 0 0 0 0 0
Nghost:              0 ave           0 max           0 min
Histogram: 1 0 0 0 0 0 0 0 0 0
Neighs:            174 ave         174 max         174 min
Histogram: 1 0 0 0 0 0 0 0 0 0

     Time         Step         TotEng         KinEng         PotEng          Temp          Press          Volume    
Total # of neighbors = 174
Ave neighs/atom = 7.9090909
Ave special neighs/atom = 8.9090909
Neighbor list builds = 0
Dangerous builds = 0
 0                      0   17.754572      18.779103     -1.0245313      370.58824     -6.8983508      1000000      
 1                      1   44.488495      18.364261      26.124234      362.40171     -1.6830654      1000000      
Loop time of 0.0001896 on 1 procs for 1 steps with 22 atoms

Performance: 455.696 ns/day, 0.053 hours/ns, 5274.262 timesteps/s
Per MPI rank memory allocation (min/avg/max) = 17.85 | 17.85 | 17.85 Mbytes
5.3% CPU use with 1 MPI tasks x 1 OpenMP threads

MPI task timing breakdown:
Section |  min time  |  avg time  |  max time  |%varavg| %total
---------------------------------------------------------------
     Time         Step         TotEng         KinEng         PotEng          Temp          Press          Volume    
Pair    | 6.6e-06    | 6.6e-06    | 6.6e-06    |   0.0 |  3.48
Bond    | 1.1859e-05 | 1.1859e-05 | 1.1859e-05 |   0.0 |  6.25
Neigh   | 0          | 0          | 0          |   0.0 |  0.00
 0                      0   37.154589      18.779103      18.375486      370.58824      6.5166416      1000000      
Comm    | 7.16e-07   | 7.16e-07   | 7.16e-07   |   0.0 |  0.38
Output  | 0.00011907 | 0.00011907 | 0.00011907 |   0.0 | 62.80
Modify  | 4.8236e-05 | 4.8236e-05 | 4.8236e-05 |   0.0 | 25.44
Other   |            | 3.119e-06  |            |       |  1.65

Nlocal:             22 ave          22 max          22 min
Histogram: 1 0 0 0 0 0 0 0 0 0
Nghost:              0 ave           0 max           0 min
Histogram: 1 0 0 0 0 0 0 0 0 0
Neighs:            174 ave         174 max         174 min
Histogram: 1 0 0 0 0 0 0 0 0 0

Total # of neighbors = 174
Ave neighs/atom = 7.9090909
Ave special neighs/atom = 8.9090909
Neighbor list builds = 0
Dangerous builds = 0
Setting up Verlet run ...
  Unit style    : real
  Current step  : 0
  Time step     : 1
 1                      1   12.435582      13.305893     -0.87031081     262.57949      0.39064049     1000000      
 1                      1   37.494577      14.267554      23.227023      281.55698      3.1389899      1000000      
Loop time of 0.000192332 on 1 procs for 1 steps with 22 atoms

Performance: 449.223 ns/day, 0.053 hours/ns, 5199.343 timesteps/s
5.7% CPU use with 1 MPI tasks x 1 OpenMP threads
Loop time of 0.00024446 on 1 procs for 1 steps with 22 atoms


MPI task timing breakdown:
Section |  min time  |  avg time  |  max time  |%varavg| %total
---------------------------------------------------------------
Performance: 353.432 ns/day, 0.068 hours/ns, 4090.649 timesteps/s
Pair    | 6.309e-06  | 6.309e-06  | 6.309e-06  |   0.0 |  3.28
3.7% CPU use with 1 MPI tasks x 1 OpenMP threads
Bond    | 1.4642e-05 | 1.4642e-05 | 1.4642e-05 |   0.0 |  7.61
Per MPI rank memory allocation (min/avg/max) = 17.85 | 17.85 | 17.85 Mbytes

MPI task timing breakdown:
Section |  min time  |  avg time  |  max time  |%varavg| %total
---------------------------------------------------------------
Neigh   | 0          | 0          | 0          |   0.0 |  0.00
Pair    | 6.392e-06  | 6.392e-06  | 6.392e-06  |   0.0 |  2.61
     Time         Step         TotEng         KinEng         PotEng          Temp          Press          Volume    
Comm    | 4.49e-07   | 4.49e-07   | 4.49e-07   |   0.0 |  0.23
Setting up Verlet run ...
 1                      1   30.242416      11.913454      18.328962      235.101        3.7988748      1000000      
Bond    | 1.9572e-05 | 1.9572e-05 | 1.9572e-05 |   0.0 |  8.01
Output  | 0.00012716 | 0.00012716 | 0.00012716 |   0.0 | 66.11
 0                      0   27.507897      18.779103      8.7287941      370.58824      4.4341409      1000000      
  Unit style    : real
  Current step  : 0
  Time step     : 1
Loop time of 0.000184444 on 1 procs for 1 steps with 22 atoms

Neigh   | 0          | 0          | 0          |   0.0 |  0.00
Modify  | 4.0915e-05 | 4.0915e-05 | 4.0915e-05 |   0.0 | 21.27
Performance: 468.435 ns/day, 0.051 hours/ns, 5421.700 timesteps/s
Comm    | 4.47e-07   | 4.47e-07   | 4.47e-07   |   0.0 |  0.18
Other   |            | 2.862e-06  |            |       |  1.49
6.0% CPU use with 1 MPI tasks x 1 OpenMP threads
Output  | 0.00016034 | 0.00016034 | 0.00016034 |   0.0 | 65.59

MPI task timing breakdown:
Section |  min time  |  avg time  |  max time  |%varavg| %total
---------------------------------------------------------------

Nlocal:             22 ave          22 max          22 min
Histogram: 1 0 0 0 0 0 0 0 0 0
Nghost:              0 ave           0 max           0 min
Histogram: 1 0 0 0 0 0 0 0 0 0
Neighs:            174 ave         174 max         174 min
Histogram: 1 0 0 0 0 0 0 0 0 0
Pair    | 6.723e-06  | 6.723e-06  | 6.723e-06  |   0.0 |  3.65
Modify  | 5.4855e-05 | 5.4855e-05 | 5.4855e-05 |   0.0 | 22.44

Bond    | 1.125e-05  | 1.125e-05  | 1.125e-05  |   0.0 |  6.10
Other   |            | 2.859e-06  |            |       |  1.17
Neigh   | 0          | 0          | 0          |   0.0 |  0.00
Total # of neighbors = 174
Ave neighs/atom = 7.9090909
Ave special neighs/atom = 8.9090909
Neighbor list builds = 0
Dangerous builds = 0
Comm    | 6.63e-07   | 6.63e-07   | 6.63e-07   |   0.0 |  0.36
Output  | 0.00011456 | 0.00011456 | 0.00011456 |   0.0 | 62.11
Modify  | 4.8004e-05 | 4.8004e-05 | 4.8004e-05 |   0.0 | 26.03

Nlocal:             22 ave          22 max          22 min
Histogram: 1 0 0 0 0 0 0 0 0 0
Nghost:              0 ave           0 max           0 min
Histogram: 1 0 0 0 0 0 0 0 0 0
Neighs:            174 ave         174 max         174 min
Histogram: 1 0 0 0 0 0 0 0 0 0
Other   |            | 3.248e-06  |            |       |  1.76


Nlocal:             22 ave          22 max          22 min
Histogram: 1 0 0 0 0 0 0 0 0 0
Nghost:              0 ave           0 max           0 min
Histogram: 1 0 0 0 0 0 0 0 0 0
Neighs:            174 ave         174 max         174 min
Histogram: 1 0 0 0 0 0 0 0 0 0

Total # of neighbors = 174
Ave neighs/atom = 7.9090909
Ave special neighs/atom = 8.9090909
Neighbor list builds = 0
Dangerous builds = 0
 1                      1   24.505431      16.737663      7.767768       330.3023       3.068649       1000000      
Total # of neighbors = 174
Ave neighs/atom = 7.9090909
Ave special neighs/atom = 8.9090909
Neighbor list builds = 0
Dangerous builds = 0
Loop time of 0.000195769 on 1 procs for 1 steps with 22 atoms

Performance: 441.336 ns/day, 0.054 hours/ns, 5108.061 timesteps/s
4.6% CPU use with 1 MPI tasks x 1 OpenMP threads

MPI task timing breakdown:
Section |  min time  |  avg time  |  max time  |%varavg| %total
---------------------------------------------------------------
Pair    | 6.348e-06  | 6.348e-06  | 6.348e-06  |   0.0 |  3.24
Bond    | 1.1306e-05 | 1.1306e-05 | 1.1306e-05 |   0.0 |  5.78
Neigh   | 0          | 0          | 0          |   0.0 |  0.00
Comm    | 3.87e-07   | 3.87e-07   | 3.87e-07   |   0.0 |  0.20
Per MPI rank memory allocation (min/avg/max) = 17.85 | 17.85 | 17.85 Mbytes
Output  | 0.00013481 | 0.00013481 | 0.00013481 |   0.0 | 68.86
     Time         Step         TotEng         KinEng         PotEng          Temp          Press          Volume    
Modify  | 4.0194e-05 | 4.0194e-05 | 4.0194e-05 |   0.0 | 20.53
Other   |            | 2.719e-06  |            |       |  1.39
 0                      0   47.386002      18.779103      28.606899      370.58824      4.0805581      1000000      
Setting up Verlet run ...

Nlocal:             22 ave          22 max          22 min
Histogram: 1 0 0 0 0 0 0 0 0 0
Nghost:              0 ave           0 max           0 min
Histogram: 1 0 0 0 0 0 0 0 0 0
Neighs:            174 ave         174 max         174 min
Histogram: 1 0 0 0 0 0 0 0 0 0

  Unit style    : real
  Current step  : 0
  Time step     : 1
Total # of neighbors = 174
Ave neighs/atom = 7.9090909
Ave special neighs/atom = 8.9090909
Neighbor list builds = 0
Dangerous builds = 0
 1                      1   43.250455      14.46414       28.786315      285.43643      1.1133178      1000000      
Loop time of 0.000197624 on 1 procs for 1 steps with 22 atoms

Performance: 437.194 ns/day, 0.055 hours/ns, 5060.114 timesteps/s
97.2% CPU use with 1 MPI tasks x 1 OpenMP threads

MPI task timing breakdown:
Section |  min time  |  avg time  |  max time  |%varavg| %total
---------------------------------------------------------------
Pair    | 6.395e-06  | 6.395e-06  | 6.395e-06  |   0.0 |  3.24
Bond    | 1.1325e-05 | 1.1325e-05 | 1.1325e-05 |   0.0 |  5.73
Neigh   | 0          | 0          | 0          |   0.0 |  0.00
Comm    | 4.62e-07   | 4.62e-07   | 4.62e-07   |   0.0 |  0.23
Output  | 0.00013508 | 0.00013508 | 0.00013508 |   0.0 | 68.35
Modify  | 4.1317e-05 | 4.1317e-05 | 4.1317e-05 |   0.0 | 20.91
Other   |            | 3.045e-06  |            |       |  1.54

Nlocal:             22 ave          22 max          22 min
Histogram: 1 0 0 0 0 0 0 0 0 0
Nghost:              0 ave           0 max           0 min
Histogram: 1 0 0 0 0 0 0 0 0 0
Neighs:            174 ave         174 max         174 min
Histogram: 1 0 0 0 0 0 0 0 0 0

Total # of neighbors = 174
Ave neighs/atom = 7.9090909
Ave special neighs/atom = 8.9090909
Neighbor list builds = 0
Dangerous builds = 0
Per MPI rank memory allocation (min/avg/max) = 17.85 | 17.85 | 17.85 Mbytes
     Time         Step         TotEng         KinEng         PotEng          Temp          Press          Volume    
 0                      0   32.721278      18.779103      13.942174      370.58824      4.1953931      1000000      
Per MPI rank memory allocation (min/avg/max) = 17.85 | 17.85 | 17.85 Mbytes
     Time         Step         TotEng         KinEng         PotEng          Temp          Press          Volume    
 0                      0   38.815085      18.779103      20.035982      370.58824      1.0974724      1000000      
 1                      1   28.591004      17.053994      11.53701       336.54479      0.26997953     1000000      
Loop time of 0.000204006 on 1 procs for 1 steps with 22 atoms

Performance: 423.517 ns/day, 0.057 hours/ns, 4901.817 timesteps/s
5.4% CPU use with 1 MPI tasks x 1 OpenMP threads

MPI task timing breakdown:
Section |  min time  |  avg time  |  max time  |%varavg| %total
---------------------------------------------------------------
Pair    | 6.327e-06  | 6.327e-06  | 6.327e-06  |   0.0 |  3.10
Bond    | 1.1297e-05 | 1.1297e-05 | 1.1297e-05 |   0.0 |  5.54
 1                      1   35.341646      18.466829      16.874817      364.42578     -7.6287504      1000000      
Neigh   | 0          | 0          | 0          |   0.0 |  0.00
Loop time of 0.000203008 on 1 procs for 1 steps with 22 atoms

Comm    | 4.4e-07    | 4.4e-07    | 4.4e-07    |   0.0 |  0.22
Performance: 425.599 ns/day, 0.056 hours/ns, 4925.914 timesteps/s
Output  | 0.00013876 | 0.00013876 | 0.00013876 |   0.0 | 68.02
4.9% CPU use with 1 MPI tasks x 1 OpenMP threads
Modify  | 4.4302e-05 | 4.4302e-05 | 4.4302e-05 |   0.0 | 21.72

MPI task timing breakdown:
Section |  min time  |  avg time  |  max time  |%varavg| %total
---------------------------------------------------------------
Other   |            | 2.882e-06  |            |       |  1.41
Pair    | 6.31e-06   | 6.31e-06   | 6.31e-06   |   0.0 |  3.11
Bond    | 1.1347e-05 | 1.1347e-05 | 1.1347e-05 |   0.0 |  5.59

Nlocal:             22 ave          22 max          22 min
Histogram: 1 0 0 0 0 0 0 0 0 0
Nghost:              0 ave           0 max           0 min
Histogram: 1 0 0 0 0 0 0 0 0 0
Neighs:            174 ave         174 max         174 min
Histogram: 1 0 0 0 0 0 0 0 0 0
Neigh   | 0          | 0          | 0          |   0.0 |  0.00

Comm    | 4.79e-07   | 4.79e-07   | 4.79e-07   |   0.0 |  0.24
Output  | 0.00012614 | 0.00012614 | 0.00012614 |   0.0 | 62.13
Total # of neighbors = 174
Ave neighs/atom = 7.9090909
Ave special neighs/atom = 8.9090909
Neighbor list builds = 0
Dangerous builds = 0
Modify  | 5.5976e-05 | 5.5976e-05 | 5.5976e-05 |   0.0 | 27.57
Other   |            | 2.759e-06  |            |       |  1.36

Nlocal:             22 ave          22 max          22 min
Histogram: 1 0 0 0 0 0 0 0 0 0
Nghost:              0 ave           0 max           0 min
Histogram: 1 0 0 0 0 0 0 0 0 0
Neighs:            174 ave         174 max         174 min
Histogram: 1 0 0 0 0 0 0 0 0 0

Total # of neighbors = 174
Ave neighs/atom = 7.9090909
Ave special neighs/atom = 8.9090909
Neighbor list builds = 0
Dangerous builds = 0
Per MPI rank memory allocation (min/avg/max) = 17.85 | 17.85 | 17.85 Mbytes
     Time         Step         TotEng         KinEng         PotEng          Temp          Press          Volume    
 0                      0   34.474694      18.779103      15.695591      370.58824      13.332976      1000000      
Per MPI rank memory allocation (min/avg/max) = 17.85 | 17.85 | 17.85 Mbytes
     Time         Step         TotEng         KinEng         PotEng          Temp          Press          Volume    
 0                      0   26.782387      18.779103      8.0032834      370.58824      5.8373114      1000000      
 1                      1   31.100863      14.888993      16.21187       293.8205       3.4765897      1000000      
Loop time of 0.000223378 on 1 procs for 1 steps with 22 atoms

Performance: 386.788 ns/day, 0.062 hours/ns, 4476.717 timesteps/s
3.1% CPU use with 1 MPI tasks x 1 OpenMP threads

MPI task timing breakdown:
Section |  min time  |  avg time  |  max time  |%varavg| %total
---------------------------------------------------------------
Pair    | 6.524e-06  | 6.524e-06  | 6.524e-06  |   0.0 |  2.92
Bond    | 1.8748e-05 | 1.8748e-05 | 1.8748e-05 |   0.0 |  8.39
Neigh   | 0          | 0          | 0          |   0.0 |  0.00
Comm    | 4.4e-07    | 4.4e-07    | 4.4e-07    |   0.0 |  0.20
Output  | 0.00012798 | 0.00012798 | 0.00012798 |   0.0 | 57.29
Modify  | 6.6687e-05 | 6.6687e-05 | 6.6687e-05 |   0.0 | 29.85
Other   |            | 3.001e-06  |            |       |  1.34

Nlocal:             22 ave          22 max          22 min
Histogram: 1 0 0 0 0 0 0 0 0 0
Nghost:              0 ave           0 max           0 min
Histogram: 1 0 0 0 0 0 0 0 0 0
Neighs:            174 ave         174 max         174 min
Histogram: 1 0 0 0 0 0 0 0 0 0

Per MPI rank memory allocation (min/avg/max) = 17.85 | 17.85 | 17.85 Mbytes
Total # of neighbors = 174
Ave neighs/atom = 7.9090909
Ave special neighs/atom = 8.9090909
Neighbor list builds = 0
Dangerous builds = 0
     Time         Step         TotEng         KinEng         PotEng          Temp          Press          Volume    
 1                      1   22.360387      15.505743      6.8546436      305.99151      2.4673052      1000000      
 0                      0   43.366506      18.779103      24.587402      370.58824     -10.334247      1000000      
Setting up Verlet run ...
Loop time of 0.000207078 on 1 procs for 1 steps with 22 atoms

  Unit style    : real
  Current step  : 0
  Time step     : 1
Performance: 417.234 ns/day, 0.058 hours/ns, 4829.098 timesteps/s
88.9% CPU use with 1 MPI tasks x 1 OpenMP threads

MPI task timing breakdown:
Section |  min time  |  avg time  |  max time  |%varavg| %total
---------------------------------------------------------------
Pair    | 1.5723e-05 | 1.5723e-05 | 1.5723e-05 |   0.0 |  7.59
Bond    | 1.1301e-05 | 1.1301e-05 | 1.1301e-05 |   0.0 |  5.46
Neigh   | 0          | 0          | 0          |   0.0 |  0.00
Comm    | 4.47e-07   | 4.47e-07   | 4.47e-07   |   0.0 |  0.22
Output  | 0.00012296 | 0.00012296 | 0.00012296 |   0.0 | 59.38
Modify  | 5.3717e-05 | 5.3717e-05 | 5.3717e-05 |   0.0 | 25.94
Other   |            | 2.931e-06  |            |       |  1.42

Nlocal:             22 ave          22 max          22 min
Histogram: 1 0 0 0 0 0 0 0 0 0
Nghost:              0 ave           0 max           0 min
Histogram: 1 0 0 0 0 0 0 0 0 0
Neighs:            174 ave         174 max         174 min
Histogram: 1 0 0 0 0 0 0 0 0 0

Total # of neighbors = 174
Ave neighs/atom = 7.9090909
Ave special neighs/atom = 8.9090909
Neighbor list builds = 0
Dangerous builds = 0
 1                      1   39.194241      15.097119      24.097122      297.92768     -0.48017274     1000000      
Loop time of 0.000183838 on 1 procs for 1 steps with 22 atoms

Performance: 469.979 ns/day, 0.051 hours/ns, 5439.572 timesteps/s
4.4% CPU use with 1 MPI tasks x 1 OpenMP threads

MPI task timing breakdown:
Section |  min time  |  avg time  |  max time  |%varavg| %total
---------------------------------------------------------------
Pair    | 6.331e-06  | 6.331e-06  | 6.331e-06  |   0.0 |  3.44
Bond    | 1.1431e-05 | 1.1431e-05 | 1.1431e-05 |   0.0 |  6.22
Neigh   | 0          | 0          | 0          |   0.0 |  0.00
Comm    | 4.55e-07   | 4.55e-07   | 4.55e-07   |   0.0 |  0.25
Output  | 0.00011386 | 0.00011386 | 0.00011386 |   0.0 | 61.93
Modify  | 4.8898e-05 | 4.8898e-05 | 4.8898e-05 |   0.0 | 26.60
Other   |            | 2.864e-06  |            |       |  1.56

Nlocal:             22 ave          22 max          22 min
Histogram: 1 0 0 0 0 0 0 0 0 0
Nghost:              0 ave           0 max           0 min
Histogram: 1 0 0 0 0 0 0 0 0 0
Neighs:            174 ave         174 max         174 min
Histogram: 1 0 0 0 0 0 0 0 0 0

Total # of neighbors = 174
Ave neighs/atom = 7.9090909
Ave special neighs/atom = 8.9090909
Neighbor list builds = 0
Dangerous builds = 0
Per MPI rank memory allocation (min/avg/max) = 17.85 | 17.85 | 17.85 Mbytes
     Time         Step         TotEng         KinEng         PotEng          Temp          Press          Volume    
 0                      0   36.177975      18.779103      17.398872      370.58824     -2.1458749      1000000      
 1                      1   34.138148      16.202467      17.935681      319.7407       1.1573725      1000000      
Loop time of 0.000181026 on 1 procs for 1 steps with 22 atoms

Performance: 477.280 ns/day, 0.050 hours/ns, 5524.068 timesteps/s
5.0% CPU use with 1 MPI tasks x 1 OpenMP threads

MPI task timing breakdown:
Section |  min time  |  avg time  |  max time  |%varavg| %total
---------------------------------------------------------------
Pair    | 1.8616e-05 | 1.8616e-05 | 1.8616e-05 |   0.0 | 10.28
Bond    | 1.0921e-05 | 1.0921e-05 | 1.0921e-05 |   0.0 |  6.03
Neigh   | 0          | 0          | 0          |   0.0 |  0.00
Comm    | 4.29e-07   | 4.29e-07   | 4.29e-07   |   0.0 |  0.24
Output  | 0.00010871 | 0.00010871 | 0.00010871 |   0.0 | 60.05
Modify  | 3.9774e-05 | 3.9774e-05 | 3.9774e-05 |   0.0 | 21.97
Other   |            | 2.58e-06   |            |       |  1.43

Nlocal:             22 ave          22 max          22 min
Histogram: 1 0 0 0 0 0 0 0 0 0
Nghost:              0 ave           0 max           0 min
Histogram: 1 0 0 0 0 0 0 0 0 0
Neighs:            174 ave         174 max         174 min
Histogram: 1 0 0 0 0 0 0 0 0 0

Total # of neighbors = 174
Ave neighs/atom = 7.9090909
Ave special neighs/atom = 8.9090909
Neighbor list builds = 0
Dangerous builds = 0
Finding SHAKE clusters ...
       3 = # of size 2 clusters
       0 = # of size 3 clusters
       3 = # of size 4 clusters
       0 = # of frozen angles
  find clusters CPU = 0.000 seconds
Finding 1-2 1-3 1-4 neighbors ...
  special bond factors lj:    0        0        0.5     
  special bond factors coul:  0        0        0.8333333333333334
     4 = max # of 1-2 neighbors
     7 = max # of 1-3 neighbors
    13 = max # of 1-4 neighbors
    16 = max # of special neighbors
  special bonds CPU = 0.000 seconds
Generated 21 of 21 mixed pair_coeff terms from arithmetic mixing rule
Neighbor list info ...
  update every 1 steps, delay 10 steps, check yes
  max neighbors/atom: 22, page size: 2200
  master list distance cutoff = 14
  ghost atom cutoff = 14
  binsize = 7, bins = 15 15 15
  1 neighbor lists, perpetual/occasional/extra = 1 0 0
  (1) pair lj/cut/coul/cut, perpetual
      attributes: half, newton on
      pair build: half/bin/newton
      stencil: half/bin/3d
      bin: standard
Total wall time: 0:00:00
Setting up Verlet run ...
  Unit style    : real
  Current step  : 0
  Time step     : 1
Per MPI rank memory allocation (min/avg/max) = 17.85 | 17.85 | 17.85 Mbytes
     Time         Step         TotEng         KinEng         PotEng          Temp          Press          Volume    
 0                      0   27.746303      18.779103      8.9671999      370.58824     -7.8037048      1000000      
 1                      1   24.341737      15.020533      9.321204       296.41633      2.665421       1000000      
Loop time of 0.000188323 on 1 procs for 1 steps with 22 atoms

Performance: 458.786 ns/day, 0.052 hours/ns, 5310.026 timesteps/s
4.2% CPU use with 1 MPI tasks x 1 OpenMP threads

MPI task timing breakdown:
Section |  min time  |  avg time  |  max time  |%varavg| %total
---------------------------------------------------------------
Pair    | 1.7871e-05 | 1.7871e-05 | 1.7871e-05 |   0.0 |  9.49
Bond    | 1.0991e-05 | 1.0991e-05 | 1.0991e-05 |   0.0 |  5.84
Neigh   | 0          | 0          | 0          |   0.0 |  0.00
Comm    | 4.17e-07   | 4.17e-07   | 4.17e-07   |   0.0 |  0.22
Output  | 0.00011642 | 0.00011642 | 0.00011642 |   0.0 | 61.82
Modify  | 4.0125e-05 | 4.0125e-05 | 4.0125e-05 |   0.0 | 21.31
Other   |            | 2.503e-06  |            |       |  1.33

Nlocal:             22 ave          22 max          22 min
Histogram: 1 0 0 0 0 0 0 0 0 0
Nghost:              0 ave           0 max           0 min
Histogram: 1 0 0 0 0 0 0 0 0 0
Neighs:            174 ave         174 max         174 min
Histogram: 1 0 0 0 0 0 0 0 0 0

Total # of neighbors = 174
Ave neighs/atom = 7.9090909
Ave special neighs/atom = 8.9090909
Neighbor list builds = 0
Dangerous builds = 0
Finding SHAKE clusters ...
       3 = # of size 2 clusters
       0 = # of size 3 clusters
       3 = # of size 4 clusters
       0 = # of frozen angles
  find clusters CPU = 0.000 seconds
Finding 1-2 1-3 1-4 neighbors ...
  special bond factors lj:    0        0        0.5     
  special bond factors coul:  0        0        0.8333333333333334
     4 = max # of 1-2 neighbors
     7 = max # of 1-3 neighbors
    13 = max # of 1-4 neighbors
    16 = max # of special neighbors
  special bonds CPU = 0.000 seconds
Generated 21 of 21 mixed pair_coeff terms from arithmetic mixing rule
Neighbor list info ...
  update every 1 steps, delay 10 steps, check yes
  max neighbors/atom: 22, page size: 2200
  master list distance cutoff = 14
  ghost atom cutoff = 14
  binsize = 7, bins = 15 15 15
  1 neighbor lists, perpetual/occasional/extra = 1 0 0
  (1) pair lj/cut/coul/cut, perpetual
      attributes: half, newton on
      pair build: half/bin/newton
      stencil: half/bin/3d
      bin: standard
Total wall time: 0:00:00
Setting up Verlet run ...
  Unit style    : real
  Current step  : 0
  Time step     : 1
Per MPI rank memory allocation (min/avg/max) = 17.85 | 17.85 | 17.85 Mbytes
     Time         Step         TotEng         KinEng         PotEng          Temp          Press          Volume    
 0                      0   33.549739      18.779103      14.770636      370.58824      2.1165006      1000000      
 1                      1   29.664025      15.132348      14.531678      298.62288      2.8811987      1000000      
Loop time of 0.000176489 on 1 procs for 1 steps with 22 atoms

Performance: 489.549 ns/day, 0.049 hours/ns, 5666.076 timesteps/s
5.1% CPU use with 1 MPI tasks x 1 OpenMP threads

MPI task timing breakdown:
Section |  min time  |  avg time  |  max time  |%varavg| %total
---------------------------------------------------------------
Pair    | 6.051e-06  | 6.051e-06  | 6.051e-06  |   0.0 |  3.43
Bond    | 1.0823e-05 | 1.0823e-05 | 1.0823e-05 |   0.0 |  6.13
Neigh   | 0          | 0          | 0          |   0.0 |  0.00
Comm    | 4.52e-07   | 4.52e-07   | 4.52e-07   |   0.0 |  0.26
Output  | 0.00011526 | 0.00011526 | 0.00011526 |   0.0 | 65.31
Modify  | 4.1365e-05 | 4.1365e-05 | 4.1365e-05 |   0.0 | 23.44
Other   |            | 2.535e-06  |            |       |  1.44

Nlocal:             22 ave          22 max          22 min
Histogram: 1 0 0 0 0 0 0 0 0 0
Nghost:              0 ave           0 max           0 min
Histogram: 1 0 0 0 0 0 0 0 0 0
Neighs:            174 ave         174 max         174 min
Histogram: 1 0 0 0 0 0 0 0 0 0

Total # of neighbors = 174
Ave neighs/atom = 7.9090909
Ave special neighs/atom = 8.9090909
Neighbor list builds = 0
Dangerous builds = 0
Setting up Verlet run ...
  Unit style    : real
  Current step  : 0
  Time step     : 1
Setting up Verlet run ...
  Unit style    : real
  Current step  : 0
  Time step     : 1
Per MPI rank memory allocation (min/avg/max) = 17.85 | 17.85 | 17.85 Mbytes
     Time         Step         TotEng         KinEng         PotEng          Temp          Press          Volume    
 0                      0   38.694013      18.779103      19.91491       370.58824      1.7146721      1000000      
 1                      1   34.655702      14.582708      20.072994      287.77626      0.02745607     1000000      
Loop time of 0.00018085 on 1 procs for 1 steps with 22 atoms

Performance: 477.744 ns/day, 0.050 hours/ns, 5529.444 timesteps/s
5.0% CPU use with 1 MPI tasks x 1 OpenMP threads

MPI task timing breakdown:
Section |  min time  |  avg time  |  max time  |%varavg| %total
---------------------------------------------------------------
Pair    | 6.329e-06  | 6.329e-06  | 6.329e-06  |   0.0 |  3.50
Bond    | 1.1591e-05 | 1.1591e-05 | 1.1591e-05 |   0.0 |  6.41
Neigh   | 0          | 0          | 0          |   0.0 |  0.00
Comm    | 4.4e-07    | 4.4e-07    | 4.4e-07    |   0.0 |  0.24
Output  | 0.00011555 | 0.00011555 | 0.00011555 |   0.0 | 63.89
Modify  | 4.4165e-05 | 4.4165e-05 | 4.4165e-05 |   0.0 | 24.42
Other   |            | 2.778e-06  |            |       |  1.54

Nlocal:             22 ave          22 max          22 min
Histogram: 1 0 0 0 0 0 0 0 0 0
Nghost:              0 ave           0 max           0 min
Histogram: 1 0 0 0 0 0 0 0 0 0
Neighs:            174 ave         174 max         174 min
Histogram: 1 0 0 0 0 0 0 0 0 0

Total # of neighbors = 174
Ave neighs/atom = 7.9090909
Ave special neighs/atom = 8.9090909
Neighbor list builds = 0
Dangerous builds = 0
Per MPI rank memory allocation (min/avg/max) = 17.85 | 17.85 | 17.85 Mbytes
     Time         Step         TotEng         KinEng         PotEng          Temp          Press          Volume    
 0                      0   21.537322      18.779103      2.7582183      370.58824      5.9243398      1000000      
Total wall time: 0:00:00
 1                      1   18.970348      16.564082      2.4062655      326.87684      1.6193904      1000000      
Loop time of 0.000219809 on 1 procs for 1 steps with 22 atoms

Performance: 393.069 ns/day, 0.061 hours/ns, 4549.404 timesteps/s
5.0% CPU use with 1 MPI tasks x 1 OpenMP threads

MPI task timing breakdown:
Section |  min time  |  avg time  |  max time  |%varavg| %total
---------------------------------------------------------------
Pair    | 6.339e-06  | 6.339e-06  | 6.339e-06  |   0.0 |  2.88
Bond    | 1.1156e-05 | 1.1156e-05 | 1.1156e-05 |   0.0 |  5.08
Neigh   | 0          | 0          | 0          |   0.0 |  0.00
Comm    | 4.57e-07   | 4.57e-07   | 4.57e-07   |   0.0 |  0.21
Output  | 0.00015536 | 0.00015536 | 0.00015536 |   0.0 | 70.68
Modify  | 4.3818e-05 | 4.3818e-05 | 4.3818e-05 |   0.0 | 19.93
Setting up Verlet run ...
  Unit style    : real
  Current step  : 0
  Time step     : 1
Setting up Verlet run ...
  Unit style    : real
  Current step  : 0
  Time step     : 1
Setting up Verlet run ...
Setting up Verlet run ...
  Unit style    : real
  Current step  : 0
  Time step     : 1
LAMMPS (23 Jun 2022)
  Unit style    : real
  Current step  : 0
  Time step     : 1
LAMMPS (23 Jun 2022)
Total wall time: 0:00:00
Total wall time: 0:00:00
Total wall time: 0:00:00
Total wall time: 0:00:00
Other   |            | 2.678e-06  |            |       |  1.22

Nlocal:             22 ave          22 max          22 min
Histogram: 1 0 0 0 0 0 0 0 0 0
Nghost:              0 ave           0 max           0 min
Histogram: 1 0 0 0 0 0 0 0 0 0
Neighs:            174 ave         174 max         174 min
Histogram: 1 0 0 0 0 0 0 0 0 0

Total # of neighbors = 174
Ave neighs/atom = 7.9090909
Ave special neighs/atom = 8.9090909
Neighbor list builds = 0
Dangerous builds = 0
Per MPI rank memory allocation (min/avg/max) = 17.85 | 17.85 | 17.85 Mbytes
     Time         Step         TotEng         KinEng         PotEng          Temp          Press          Volume    
Per MPI rank memory allocation (min/avg/max) = 17.85 | 17.85 | 17.85 Mbytes
 0                      0   38.553211      18.779103      19.774108      370.58824     -4.7757162      1000000      
     Time         Step         TotEng         KinEng         PotEng          Temp          Press          Volume    
 0                      0   25.630579      18.779103      6.8514757      370.58824     -2.1862458      1000000      
Per MPI rank memory allocation (min/avg/max) = 17.85 | 17.85 | 17.85 Mbytes
     Time         Step         TotEng         KinEng         PotEng          Temp          Press          Volume    
 0                      0   29.62707       18.779103      10.847967      370.58824      5.1462415      1000000      
Per MPI rank memory allocation (min/avg/max) = 17.85 | 17.85 | 17.85 Mbytes
     Time         Step         TotEng         KinEng         PotEng          Temp          Press          Volume    
 0                      0   40.300708      18.779103      21.521604      370.58824     -2.2531705      1000000      
 1                      1   33.960994      14.379628      19.581367      283.76866      0.13480283     1000000      
Loop time of 0.000189809 on 1 procs for 1 steps with 22 atoms

Performance: 455.194 ns/day, 0.053 hours/ns, 5268.454 timesteps/s
5.3% CPU use with 1 MPI tasks x 1 OpenMP threads
 1                      1   22.655036      15.036081      7.6189543      296.72316     -1.3569441      1000000      

MPI task timing breakdown:
Section |  min time  |  avg time  |  max time  |%varavg| %total
---------------------------------------------------------------
Loop time of 0.000190802 on 1 procs for 1 steps with 22 atoms

Pair    | 6.464e-06  | 6.464e-06  | 6.464e-06  |   0.0 |  3.41
Performance: 452.825 ns/day, 0.053 hours/ns, 5241.035 timesteps/s
Bond    | 1.1821e-05 | 1.1821e-05 | 1.1821e-05 |   0.0 |  6.23
4.7% CPU use with 1 MPI tasks x 1 OpenMP threads
Neigh   | 0          | 0          | 0          |   0.0 |  0.00

MPI task timing breakdown:
Section |  min time  |  avg time  |  max time  |%varavg| %total
---------------------------------------------------------------
Comm    | 4.81e-07   | 4.81e-07   | 4.81e-07   |   0.0 |  0.25
Pair    | 6.48e-06   | 6.48e-06   | 6.48e-06   |   0.0 |  3.40
Output  | 0.0001203  | 0.0001203  | 0.0001203  |   0.0 | 63.38
 1                      1   28.066808      15.821804      12.245004      312.22868     -2.0029105      1000000      
Bond    | 1.1601e-05 | 1.1601e-05 | 1.1601e-05 |   0.0 |  6.08
Modify  | 4.7738e-05 | 4.7738e-05 | 4.7738e-05 |   0.0 | 25.15
Neigh   | 0          | 0          | 0          |   0.0 |  0.00
Loop time of 0.000200719 on 1 procs for 1 steps with 22 atoms

Other   |            | 3.005e-06  |            |       |  1.58
Comm    | 4.86e-07   | 4.86e-07   | 4.86e-07   |   0.0 |  0.25
 1                      1   36.050808      15.954057      20.096751      314.83856     -4.5223841      1000000      
Performance: 430.453 ns/day, 0.056 hours/ns, 4982.089 timesteps/s
Output  | 0.00012265 | 0.00012265 | 0.00012265 |   0.0 | 64.28

Nlocal:             22 ave          22 max          22 min
Histogram: 1 0 0 0 0 0 0 0 0 0
Nghost:              0 ave           0 max           0 min
Histogram: 1 0 0 0 0 0 0 0 0 0
Neighs:            174 ave         174 max         174 min
Histogram: 1 0 0 0 0 0 0 0 0 0
Loop time of 0.000204039 on 1 procs for 1 steps with 22 atoms

6.0% CPU use with 1 MPI tasks x 1 OpenMP threads
Modify  | 4.6688e-05 | 4.6688e-05 | 4.6688e-05 |   0.0 | 24.47

Performance: 423.448 ns/day, 0.057 hours/ns, 4901.024 timesteps/s

MPI task timing breakdown:
Section |  min time  |  avg time  |  max time  |%varavg| %total
---------------------------------------------------------------
Other   |            | 2.901e-06  |            |       |  1.52
4.4% CPU use with 1 MPI tasks x 1 OpenMP threads
Total # of neighbors = 174
Ave neighs/atom = 7.9090909
Ave special neighs/atom = 8.9090909
Neighbor list builds = 0
Dangerous builds = 0
Pair    | 6.585e-06  | 6.585e-06  | 6.585e-06  |   0.0 |  3.28

MPI task timing breakdown:
Section |  min time  |  avg time  |  max time  |%varavg| %total
---------------------------------------------------------------

Nlocal:             22 ave          22 max          22 min
Histogram: 1 0 0 0 0 0 0 0 0 0
Nghost:              0 ave           0 max           0 min
Histogram: 1 0 0 0 0 0 0 0 0 0
Neighs:            174 ave         174 max         174 min
Histogram: 1 0 0 0 0 0 0 0 0 0
Bond    | 1.2439e-05 | 1.2439e-05 | 1.2439e-05 |   0.0 |  6.20
Pair    | 6.533e-06  | 6.533e-06  | 6.533e-06  |   0.0 |  3.20

Neigh   | 0          | 0          | 0          |   0.0 |  0.00
Bond    | 1.1797e-05 | 1.1797e-05 | 1.1797e-05 |   0.0 |  5.78
Comm    | 7.37e-07   | 7.37e-07   | 7.37e-07   |   0.0 |  0.37
Total # of neighbors = 174
Ave neighs/atom = 7.9090909
Ave special neighs/atom = 8.9090909
Neighbor list builds = 0
Dangerous builds = 0
Neigh   | 0          | 0          | 0          |   0.0 |  0.00
Output  | 0.00012908 | 0.00012908 | 0.00012908 |   0.0 | 64.31
Comm    | 4.73e-07   | 4.73e-07   | 4.73e-07   |   0.0 |  0.23
Modify  | 4.8603e-05 | 4.8603e-05 | 4.8603e-05 |   0.0 | 24.21
Output  | 0.00013356 | 0.00013356 | 0.00013356 |   0.0 | 65.46
Other   |            | 3.274e-06  |            |       |  1.63
Modify  | 4.8574e-05 | 4.8574e-05 | 4.8574e-05 |   0.0 | 23.81
Other   |            | 3.105e-06  |            |       |  1.52

Nlocal:             22 ave          22 max          22 min
Histogram: 1 0 0 0 0 0 0 0 0 0
Nghost:              0 ave           0 max           0 min
Histogram: 1 0 0 0 0 0 0 0 0 0
Neighs:            174 ave         174 max         174 min
Histogram: 1 0 0 0 0 0 0 0 0 0


Nlocal:             22 ave          22 max          22 min
Histogram: 1 0 0 0 0 0 0 0 0 0
Nghost:              0 ave           0 max           0 min
Histogram: 1 0 0 0 0 0 0 0 0 0
Neighs:            174 ave         174 max         174 min
Histogram: 1 0 0 0 0 0 0 0 0 0

Total # of neighbors = 174
Ave neighs/atom = 7.9090909
Ave special neighs/atom = 8.9090909
Neighbor list builds = 0
Dangerous builds = 0
Total # of neighbors = 174
Ave neighs/atom = 7.9090909
Ave special neighs/atom = 8.9090909
Neighbor list builds = 0
Dangerous builds = 0
Total wall time: 0:00:00
  using 1 OpenMP thread(s) per MPI task
Reading data file ...
  orthogonal box = (-50 -50 -50) to (50 50 50)
  1 by 1 by 1 MPI processor grid
  reading atoms ...
  22 atoms
  scanning bonds ...
  3 = max bonds/atom
  scanning angles ...
  6 = max angles/atom
  scanning dihedrals ...
  20 = max dihedrals/atom
  reading bonds ...
  21 bonds
  reading angles ...
  36 angles
  reading dihedrals ...
  66 dihedrals
Finding 1-2 1-3 1-4 neighbors ...
  special bond factors lj:    0        0        0       
  special bond factors coul:  0        0        0       
     4 = max # of 1-2 neighbors
     7 = max # of 1-3 neighbors
    13 = max # of 1-4 neighbors
    16 = max # of special neighbors
  special bonds CPU = 0.000 seconds
  read_data CPU = 0.004 seconds
  using 1 OpenMP thread(s) per MPI task
Reading data file ...
  orthogonal box = (-50 -50 -50) to (50 50 50)
  1 by 1 by 1 MPI processor grid
  reading atoms ...
  22 atoms
  scanning bonds ...
  3 = max bonds/atom
  scanning angles ...
  6 = max angles/atom
  scanning dihedrals ...
  20 = max dihedrals/atom
  reading bonds ...
  21 bonds
  reading angles ...
  36 angles
  reading dihedrals ...
  66 dihedrals
Finding 1-2 1-3 1-4 neighbors ...
  special bond factors lj:    0        0        0       
  special bond factors coul:  0        0        0       
     4 = max # of 1-2 neighbors
     7 = max # of 1-3 neighbors
    13 = max # of 1-4 neighbors
    16 = max # of special neighbors
  special bonds CPU = 0.000 seconds
  read_data CPU = 0.004 seconds
Finding SHAKE clusters ...
       3 = # of size 2 clusters
       0 = # of size 3 clusters
       3 = # of size 4 clusters
       0 = # of frozen angles
  find clusters CPU = 0.000 seconds
Finding 1-2 1-3 1-4 neighbors ...
  special bond factors lj:    0        0        0.5     
  special bond factors coul:  0        0        0.8333333333333334
     4 = max # of 1-2 neighbors
     7 = max # of 1-3 neighbors
    13 = max # of 1-4 neighbors
    16 = max # of special neighbors
  special bonds CPU = 0.000 seconds
Generated 21 of 21 mixed pair_coeff terms from arithmetic mixing rule
Neighbor list info ...
  update every 1 steps, delay 10 steps, check yes
  max neighbors/atom: 22, page size: 2200
  master list distance cutoff = 14
  ghost atom cutoff = 14
  binsize = 7, bins = 15 15 15
  1 neighbor lists, perpetual/occasional/extra = 1 0 0
  (1) pair lj/cut/coul/cut, perpetual
      attributes: half, newton on
      pair build: half/bin/newton
      stencil: half/bin/3d
      bin: standard
Setting up Verlet run ...
  Unit style    : real
  Current step  : 0
  Time step     : 1
Per MPI rank memory allocation (min/avg/max) = 17.85 | 17.85 | 17.85 Mbytes
     Time         Step         TotEng         KinEng         PotEng          Temp          Press          Volume    
 0                      0   33.454859      18.779103      14.675756      370.58824     -8.8913429      1000000      
 1                      1   31.564085      15.004645      16.55944       296.10279     -2.2967065      1000000      
Loop time of 0.00018186 on 1 procs for 1 steps with 22 atoms

Performance: 475.091 ns/day, 0.051 hours/ns, 5498.735 timesteps/s
51.7% CPU use with 1 MPI tasks x 1 OpenMP threads

MPI task timing breakdown:
Section |  min time  |  avg time  |  max time  |%varavg| %total
---------------------------------------------------------------
Pair    | 6.483e-06  | 6.483e-06  | 6.483e-06  |   0.0 |  3.56
Bond    | 1.3051e-05 | 1.3051e-05 | 1.3051e-05 |   0.0 |  7.18
Neigh   | 0          | 0          | 0          |   0.0 |  0.00
Comm    | 7.04e-07   | 7.04e-07   | 7.04e-07   |   0.0 |  0.39
Output  | 0.00011444 | 0.00011444 | 0.00011444 |   0.0 | 62.93
Modify  | 4.3955e-05 | 4.3955e-05 | 4.3955e-05 |   0.0 | 24.17
Other   |            | 3.226e-06  |            |       |  1.77

Nlocal:             22 ave          22 max          22 min
Histogram: 1 0 0 0 0 0 0 0 0 0
Nghost:              0 ave           0 max           0 min
Histogram: 1 0 0 0 0 0 0 0 0 0
Neighs:            174 ave         174 max         174 min
Histogram: 1 0 0 0 0 0 0 0 0 0

Total # of neighbors = 174
Ave neighs/atom = 7.9090909
Ave special neighs/atom = 8.9090909
Neighbor list builds = 0
Dangerous builds = 0
Total wall time: 0:00:00
Total wall time: 0:00:00
LAMMPS (23 Jun 2022)
  using 1 OpenMP thread(s) per MPI task
Reading data file ...
  orthogonal box = (-50 -50 -50) to (50 50 50)
  1 by 1 by 1 MPI processor grid
  reading atoms ...
  22 atoms
  scanning bonds ...
  3 = max bonds/atom
  scanning angles ...
  6 = max angles/atom
  scanning dihedrals ...
  20 = max dihedrals/atom
  reading bonds ...
  21 bonds
  reading angles ...
  36 angles
  reading dihedrals ...
  66 dihedrals
Finding 1-2 1-3 1-4 neighbors ...
  special bond factors lj:    0        0        0       
  special bond factors coul:  0        0        0       
     4 = max # of 1-2 neighbors
     7 = max # of 1-3 neighbors
    13 = max # of 1-4 neighbors
    16 = max # of special neighbors
  special bonds CPU = 0.000 seconds
  read_data CPU = 0.004 seconds
LAMMPS (23 Jun 2022)
Finding SHAKE clusters ...
       3 = # of size 2 clusters
       0 = # of size 3 clusters
       3 = # of size 4 clusters
       0 = # of frozen angles
  find clusters CPU = 0.000 seconds
Finding 1-2 1-3 1-4 neighbors ...
  special bond factors lj:    0        0        0.5     
  special bond factors coul:  0        0        0.8333333333333334
     4 = max # of 1-2 neighbors
     7 = max # of 1-3 neighbors
    13 = max # of 1-4 neighbors
    16 = max # of special neighbors
  special bonds CPU = 0.000 seconds
Generated 21 of 21 mixed pair_coeff terms from arithmetic mixing rule
Neighbor list info ...
  update every 1 steps, delay 10 steps, check yes
  max neighbors/atom: 22, page size: 2200
  master list distance cutoff = 14
  ghost atom cutoff = 14
  binsize = 7, bins = 15 15 15
  1 neighbor lists, perpetual/occasional/extra = 1 0 0
  (1) pair lj/cut/coul/cut, perpetual
      attributes: half, newton on
      pair build: half/bin/newton
      stencil: half/bin/3d
      bin: standard
  using 1 OpenMP thread(s) per MPI task
Reading data file ...
Setting up Verlet run ...
  Unit style    : real
  Current step  : 0
  Time step     : 1
  orthogonal box = (-50 -50 -50) to (50 50 50)
  1 by 1 by 1 MPI processor grid
  reading atoms ...
  22 atoms
  scanning bonds ...
  3 = max bonds/atom
  scanning angles ...
  6 = max angles/atom
  scanning dihedrals ...
  20 = max dihedrals/atom
Per MPI rank memory allocation (min/avg/max) = 17.85 | 17.85 | 17.85 Mbytes
[...]
Output  | 9.8501e-05 | 9.8501e-05 | 9.8501e-05 |   0.0 | 62.34
Modify  | 4.0537e-05 | 4.0537e-05 | 4.0537e-05 |   0.0 | 25.66
Other   |            | 2.592e-06  |            |       |  1.64

Nlocal:             22 ave          22 max          22 min
Histogram: 1 0 0 0 0 0 0 0 0 0
Nghost:              0 ave           0 max           0 min
Histogram: 1 0 0 0 0 0 0 0 0 0
Neighs:            174 ave         174 max         174 min
Histogram: 1 0 0 0 0 0 0 0 0 0

Total # of neighbors = 174
Ave neighs/atom = 7.9090909
Ave special neighs/atom = 8.9090909
Neighbor list builds = 0
Dangerous builds = 0
Total wall time: 0:00:00
Setting up Verlet run ...
  Unit style    : real
  Current step  : 0
  Time step     : 1
Per MPI rank memory allocation (min/avg/max) = 17.85 | 17.85 | 17.85 Mbytes
     Time         Step         TotEng         KinEng         PotEng          Temp          Press          Volume    
 0                      0   25.210732      18.779103      6.4316284      370.58824     -0.11910487     1000000      
 1                      1   22.007707      15.607319      6.4003878      307.996        2.1916242      1000000      
Loop time of 0.000166127 on 1 procs for 1 steps with 22 atoms

Performance: 520.084 ns/day, 0.046 hours/ns, 6019.491 timesteps/s
97.5% CPU use with 1 MPI tasks x 1 OpenMP threads

MPI task timing breakdown:
Section |  min time  |  avg time  |  max time  |%varavg| %total
---------------------------------------------------------------
Pair    | 5.735e-06  | 5.735e-06  | 5.735e-06  |   0.0 |  3.45
Bond    | 1.0125e-05 | 1.0125e-05 | 1.0125e-05 |   0.0 |  6.09
Neigh   | 0          | 0          | 0          |   0.0 |  0.00
Comm    | 4.39e-07   | 4.39e-07   | 4.39e-07   |   0.0 |  0.26
Output  | 0.00010672 | 0.00010672 | 0.00010672 |   0.0 | 64.24
Modify  | 4.0585e-05 | 4.0585e-05 | 4.0585e-05 |   0.0 | 24.43
Other   |            | 2.525e-06  |            |       |  1.52

Nlocal:             22 ave          22 max          22 min
Histogram: 1 0 0 0 0 0 0 0 0 0
Nghost:              0 ave           0 max           0 min
Histogram: 1 0 0 0 0 0 0 0 0 0
Neighs:            174 ave         174 max         174 min
Histogram: 1 0 0 0 0 0 0 0 0 0

Total # of neighbors = 174
Ave neighs/atom = 7.9090909
Ave special neighs/atom = 8.9090909
Neighbor list builds = 0
Dangerous builds = 0
LAMMPS (23 Jun 2022)
  using 1 OpenMP thread(s) per MPI task
Reading data file ...
  orthogonal box = (-50 -50 -50) to (50 50 50)
  1 by 1 by 1 MPI processor grid
  reading atoms ...
  22 atoms
  scanning bonds ...
  3 = max bonds/atom
  scanning angles ...
  6 = max angles/atom
  scanning dihedrals ...
  20 = max dihedrals/atom
  reading bonds ...
  21 bonds
  reading angles ...
  36 angles
  reading dihedrals ...
  66 dihedrals
Finding 1-2 1-3 1-4 neighbors ...
  special bond factors lj:    0        0        0       
  special bond factors coul:  0        0        0       
     4 = max # of 1-2 neighbors
     7 = max # of 1-3 neighbors
    13 = max # of 1-4 neighbors
    16 = max # of special neighbors
  special bonds CPU = 0.000 seconds
  read_data CPU = 0.004 seconds
Finding SHAKE clusters ...
       3 = # of size 2 clusters
       0 = # of size 3 clusters
       3 = # of size 4 clusters
       0 = # of frozen angles
  find clusters CPU = 0.000 seconds
Finding 1-2 1-3 1-4 neighbors ...
  special bond factors lj:    0        0        0.5     
  special bond factors coul:  0        0        0.8333333333333334
     4 = max # of 1-2 neighbors
     7 = max # of 1-3 neighbors
    13 = max # of 1-4 neighbors
    16 = max # of special neighbors
  special bonds CPU = 0.000 seconds
Generated 21 of 21 mixed pair_coeff terms from arithmetic mixing rule
Neighbor list info ...
  update every 1 steps, delay 10 steps, check yes
  max neighbors/atom: 22, page size: 2200
  master list distance cutoff = 14
  ghost atom cutoff = 14
  binsize = 7, bins = 15 15 15
  1 neighbor lists, perpetual/occasional/extra = 1 0 0
  (1) pair lj/cut/coul/cut, perpetual
      attributes: half, newton on
      pair build: half/bin/newton
      stencil: half/bin/3d
      bin: standard
Setting up Verlet run ...
  Unit style    : real
  Current step  : 0
  Time step     : 1
Per MPI rank memory allocation (min/avg/max) = 17.85 | 17.85 | 17.85 Mbytes
     Time         Step         TotEng         KinEng         PotEng          Temp          Press          Volume    
 0                      0   30.822732      18.779103      12.043629      370.58824     -10.038619      1000000      
 1                      1   27.095852      16.102769      10.993083      317.77326     -2.3474559      1000000      
Loop time of 0.000163028 on 1 procs for 1 steps with 22 atoms

Performance: 529.970 ns/day, 0.045 hours/ns, 6133.916 timesteps/s
52.1% CPU use with 1 MPI tasks x 1 OpenMP threads

MPI task timing breakdown:
Section |  min time  |  avg time  |  max time  |%varavg| %total
---------------------------------------------------------------
Pair    | 5.595e-06  | 5.595e-06  | 5.595e-06  |   0.0 |  3.43
Bond    | 1.0437e-05 | 1.0437e-05 | 1.0437e-05 |   0.0 |  6.40
Neigh   | 0          | 0          | 0          |   0.0 |  0.00
Comm    | 5.13e-07   | 5.13e-07   | 5.13e-07   |   0.0 |  0.31
Output  | 0.00010164 | 0.00010164 | 0.00010164 |   0.0 | 62.35
Modify  | 4.2018e-05 | 4.2018e-05 | 4.2018e-05 |   0.0 | 25.77
Other   |            | 2.822e-06  |            |       |  1.73

Nlocal:             22 ave          22 max          22 min
Histogram: 1 0 0 0 0 0 0 0 0 0
Nghost:              0 ave           0 max           0 min
Histogram: 1 0 0 0 0 0 0 0 0 0
Neighs:            174 ave         174 max         174 min
Histogram: 1 0 0 0 0 0 0 0 0 0

Total # of neighbors = 174
Ave neighs/atom = 7.9090909
Ave special neighs/atom = 8.9090909
Neighbor list builds = 0
Dangerous builds = 0
Total wall time: 0:00:01
Total wall time: 0:00:01
Total wall time: 0:00:00
LAMMPS (23 Jun 2022)
  using 1 OpenMP thread(s) per MPI task
Reading data file ...
  orthogonal box = (-50 -50 -50) to (50 50 50)
  1 by 1 by 1 MPI processor grid
  reading atoms ...
  22 atoms
  scanning bonds ...
  3 = max bonds/atom
  scanning angles ...
  6 = max angles/atom
  scanning dihedrals ...
  20 = max dihedrals/atom
  reading bonds ...
  21 bonds
  reading angles ...
  36 angles
  reading dihedrals ...
  66 dihedrals
Finding 1-2 1-3 1-4 neighbors ...
  special bond factors lj:    0        0        0       
  special bond factors coul:  0        0        0       
     4 = max # of 1-2 neighbors
     7 = max # of 1-3 neighbors
    13 = max # of 1-4 neighbors
    16 = max # of special neighbors
  special bonds CPU = 0.000 seconds
  read_data CPU = 0.004 seconds
Total wall time: 0:00:00
Finding SHAKE clusters ...
       3 = # of size 2 clusters
       0 = # of size 3 clusters
       3 = # of size 4 clusters
       0 = # of frozen angles
  find clusters CPU = 0.000 seconds
Finding 1-2 1-3 1-4 neighbors ...
  special bond factors lj:    0        0        0.5     
  special bond factors coul:  0        0        0.8333333333333334
     4 = max # of 1-2 neighbors
     7 = max # of 1-3 neighbors
    13 = max # of 1-4 neighbors
    16 = max # of special neighbors
  special bonds CPU = 0.000 seconds
Generated 21 of 21 mixed pair_coeff terms from arithmetic mixing rule
Neighbor list info ...
  update every 1 steps, delay 10 steps, check yes
  max neighbors/atom: 22, page size: 2200
  master list distance cutoff = 14
  ghost atom cutoff = 14
  binsize = 7, bins = 15 15 15
  1 neighbor lists, perpetual/occasional/extra = 1 0 0
  (1) pair lj/cut/coul/cut, perpetual
      attributes: half, newton on
      pair build: half/bin/newton
      stencil: half/bin/3d
      bin: standard
Total wall time: 0:00:00
Setting up Verlet run ...
  Unit style    : real
  Current step  : 0
  Time step     : 1
Per MPI rank memory allocation (min/avg/max) = 17.85 | 17.85 | 17.85 Mbytes
     Time         Step         TotEng         KinEng         PotEng          Temp          Press          Volume    
 0                      0   42.541212      18.779103      23.762109      370.58824      3.6600293      1000000      
 1                      1   37.796494      15.544704      22.25179       306.76036     -4.444404       1000000      
Loop time of 0.000167759 on 1 procs for 1 steps with 22 atoms

Performance: 515.025 ns/day, 0.047 hours/ns, 5960.932 timesteps/s
37.0% CPU use with 1 MPI tasks x 1 OpenMP threads

MPI task timing breakdown:
Section |  min time  |  avg time  |  max time  |%varavg| %total
---------------------------------------------------------------
Pair    | 5.657e-06  | 5.657e-06  | 5.657e-06  |   0.0 |  3.37
Bond    | 1.0339e-05 | 1.0339e-05 | 1.0339e-05 |   0.0 |  6.16
Neigh   | 0          | 0          | 0          |   0.0 |  0.00
Comm    | 6.89e-07   | 6.89e-07   | 6.89e-07   |   0.0 |  0.41
Output  | 0.00010474 | 0.00010474 | 0.00010474 |   0.0 | 62.43
Modify  | 4.3232e-05 | 4.3232e-05 | 4.3232e-05 |   0.0 | 25.77
Other   |            | 3.102e-06  |            |       |  1.85

Nlocal:             22 ave          22 max          22 min
Histogram: 1 0 0 0 0 0 0 0 0 0
Nghost:              0 ave           0 max           0 min
Histogram: 1 0 0 0 0 0 0 0 0 0
Neighs:            174 ave         174 max         174 min
Histogram: 1 0 0 0 0 0 0 0 0 0

Total # of neighbors = 174
Ave neighs/atom = 7.9090909
Ave special neighs/atom = 8.9090909
Neighbor list builds = 0
Dangerous builds = 0
Total wall time: 0:00:01
Total wall time: 0:00:00
LAMMPS (23 Jun 2022)
  using 1 OpenMP thread(s) per MPI task
Reading data file ...
  orthogonal box = (-50 -50 -50) to (50 50 50)
  1 by 1 by 1 MPI processor grid
  reading atoms ...
  22 atoms
  scanning bonds ...
  3 = max bonds/atom
  scanning angles ...
  6 = max angles/atom
  scanning dihedrals ...
  20 = max dihedrals/atom
  reading bonds ...
  21 bonds
  reading angles ...
  36 angles
  reading dihedrals ...
  66 dihedrals
Finding 1-2 1-3 1-4 neighbors ...
  special bond factors lj:    0        0        0       
  special bond factors coul:  0        0        0       
     4 = max # of 1-2 neighbors
     7 = max # of 1-3 neighbors
    13 = max # of 1-4 neighbors
    16 = max # of special neighbors
  special bonds CPU = 0.000 seconds
  read_data CPU = 0.004 seconds
Finding SHAKE clusters ...
       3 = # of size 2 clusters
       0 = # of size 3 clusters
       3 = # of size 4 clusters
       0 = # of frozen angles
  find clusters CPU = 0.000 seconds
Finding 1-2 1-3 1-4 neighbors ...
  special bond factors lj:    0        0        0.5     
  special bond factors coul:  0        0        0.8333333333333334
     4 = max # of 1-2 neighbors
     7 = max # of 1-3 neighbors
    13 = max # of 1-4 neighbors
    16 = max # of special neighbors
  special bonds CPU = 0.000 seconds
Generated 21 of 21 mixed pair_coeff terms from arithmetic mixing rule
Neighbor list info ...
  update every 1 steps, delay 10 steps, check yes
  max neighbors/atom: 22, page size: 2200
  master list distance cutoff = 14
  ghost atom cutoff = 14
  binsize = 7, bins = 15 15 15
  1 neighbor lists, perpetual/occasional/extra = 1 0 0
  (1) pair lj/cut/coul/cut, perpetual
      attributes: half, newton on
      pair build: half/bin/newton
      stencil: half/bin/3d
      bin: standard
Setting up Verlet run ...
  Unit style    : real
  Current step  : 0
  Time step     : 1
Per MPI rank memory allocation (min/avg/max) = 17.85 | 17.85 | 17.85 Mbytes
     Time         Step         TotEng         KinEng         PotEng          Temp          Press          Volume    
 0                      0   32.165187      18.779103      13.386083      370.58824     -0.47339765     1000000      
 1                      1   29.456728      17.324594      12.132134      341.88483      2.7573914      1000000      
Loop time of 0.000337936 on 1 procs for 1 steps with 22 atoms

Performance: 255.670 ns/day, 0.094 hours/ns, 2959.140 timesteps/s
97.1% CPU use with 1 MPI tasks x 1 OpenMP threads

MPI task timing breakdown:
Section |  min time  |  avg time  |  max time  |%varavg| %total
---------------------------------------------------------------
Pair    | 1.511e-05  | 1.511e-05  | 1.511e-05  |   0.0 |  4.47
Bond    | 2.6543e-05 | 2.6543e-05 | 2.6543e-05 |   0.0 |  7.85
Neigh   | 0          | 0          | 0          |   0.0 |  0.00
Comm    | 1.48e-06   | 1.48e-06   | 1.48e-06   |   0.0 |  0.44
Output  | 0.00018904 | 0.00018904 | 0.00018904 |   0.0 | 55.94
Modify  | 0.00010129 | 0.00010129 | 0.00010129 |   0.0 | 29.97
Other   |            | 4.475e-06  |            |       |  1.32

Nlocal:             22 ave          22 max          22 min
Histogram: 1 0 0 0 0 0 0 0 0 0
Nghost:              0 ave           0 max           0 min
Histogram: 1 0 0 0 0 0 0 0 0 0
Neighs:            174 ave         174 max         174 min
Histogram: 1 0 0 0 0 0 0 0 0 0

Total # of neighbors = 174
Ave neighs/atom = 7.9090909
Ave special neighs/atom = 8.9090909
Neighbor list builds = 0
Dangerous builds = 0
LAMMPS (23 Jun 2022)
  using 1 OpenMP thread(s) per MPI task
Reading data file ...
  orthogonal box = (-50 -50 -50) to (50 50 50)
  1 by 1 by 1 MPI processor grid
  reading atoms ...
  22 atoms
  scanning bonds ...
  3 = max bonds/atom
  scanning angles ...
  6 = max angles/atom
  scanning dihedrals ...
  20 = max dihedrals/atom
  reading bonds ...
  21 bonds
  reading angles ...
  36 angles
  reading dihedrals ...
  66 dihedrals
Finding 1-2 1-3 1-4 neighbors ...
  special bond factors lj:    0        0        0       
  special bond factors coul:  0        0        0       
     4 = max # of 1-2 neighbors
     7 = max # of 1-3 neighbors
    13 = max # of 1-4 neighbors
    16 = max # of special neighbors
  special bonds CPU = 0.000 seconds
  read_data CPU = 0.004 seconds
Finding SHAKE clusters ...
       3 = # of size 2 clusters
       0 = # of size 3 clusters
       3 = # of size 4 clusters
       0 = # of frozen angles
  find clusters CPU = 0.000 seconds
Finding 1-2 1-3 1-4 neighbors ...
  special bond factors lj:    0        0        0.5     
  special bond factors coul:  0        0        0.8333333333333334
     4 = max # of 1-2 neighbors
     7 = max # of 1-3 neighbors
    13 = max # of 1-4 neighbors
    16 = max # of special neighbors
  special bonds CPU = 0.000 seconds
Generated 21 of 21 mixed pair_coeff terms from arithmetic mixing rule
Neighbor list info ...
  update every 1 steps, delay 10 steps, check yes
  max neighbors/atom: 22, page size: 2200
  master list distance cutoff = 14
  ghost atom cutoff = 14
  binsize = 7, bins = 15 15 15
  1 neighbor lists, perpetual/occasional/extra = 1 0 0
  (1) pair lj/cut/coul/cut, perpetual
      attributes: half, newton on
      pair build: half/bin/newton
      stencil: half/bin/3d
      bin: standard
Setting up Verlet run ...
  Unit style    : real
  Current step  : 0
  Time step     : 1
Per MPI rank memory allocation (min/avg/max) = 17.85 | 17.85 | 17.85 Mbytes
     Time         Step         TotEng         KinEng         PotEng          Temp          Press          Volume    
 0                      0   38.025526      18.779103      19.246423      370.58824      1.5678571      1000000      
 1                      1   32.539153      18.412481      14.126672      363.35329      4.0194486      1000000      
Loop time of 0.000177503 on 1 procs for 1 steps with 22 atoms

Performance: 486.752 ns/day, 0.049 hours/ns, 5633.708 timesteps/s
36.6% CPU use with 1 MPI tasks x 1 OpenMP threads

MPI task timing breakdown:
Section |  min time  |  avg time  |  max time  |%varavg| %total
---------------------------------------------------------------
Pair    | 5.976e-06  | 5.976e-06  | 5.976e-06  |   0.0 |  3.37
Bond    | 1.1516e-05 | 1.1516e-05 | 1.1516e-05 |   0.0 |  6.49
Neigh   | 0          | 0          | 0          |   0.0 |  0.00
Comm    | 5.18e-07   | 5.18e-07   | 5.18e-07   |   0.0 |  0.29
Output  | 0.00010882 | 0.00010882 | 0.00010882 |   0.0 | 61.31
Modify  | 4.746e-05  | 4.746e-05  | 4.746e-05  |   0.0 | 26.74
Other   |            | 3.21e-06   |            |       |  1.81

Nlocal:             22 ave          22 max          22 min
Histogram: 1 0 0 0 0 0 0 0 0 0
Nghost:              0 ave           0 max           0 min
Histogram: 1 0 0 0 0 0 0 0 0 0
Neighs:            174 ave         174 max         174 min
Histogram: 1 0 0 0 0 0 0 0 0 0

Total # of neighbors = 174
Ave neighs/atom = 7.9090909
Ave special neighs/atom = 8.9090909
Neighbor list builds = 0
Dangerous builds = 0
Total wall time: 0:00:00
LAMMPS (23 Jun 2022)
  using 1 OpenMP thread(s) per MPI task
Reading data file ...
  orthogonal box = (-50 -50 -50) to (50 50 50)
  1 by 1 by 1 MPI processor grid
  reading atoms ...
  22 atoms
  scanning bonds ...
  3 = max bonds/atom
  scanning angles ...
  6 = max angles/atom
  scanning dihedrals ...
  20 = max dihedrals/atom
  reading bonds ...
  21 bonds
  reading angles ...
  36 angles
  reading dihedrals ...
  66 dihedrals
Finding 1-2 1-3 1-4 neighbors ...
  special bond factors lj:    0        0        0       
  special bond factors coul:  0        0        0       
     4 = max # of 1-2 neighbors
     7 = max # of 1-3 neighbors
    13 = max # of 1-4 neighbors
    16 = max # of special neighbors
  special bonds CPU = 0.000 seconds
  read_data CPU = 0.004 seconds
Finding SHAKE clusters ...
       3 = # of size 2 clusters
       0 = # of size 3 clusters
       3 = # of size 4 clusters
       0 = # of frozen angles
  find clusters CPU = 0.000 seconds
Finding 1-2 1-3 1-4 neighbors ...
  special bond factors lj:    0        0        0.5     
  special bond factors coul:  0        0        0.8333333333333334
     4 = max # of 1-2 neighbors
     7 = max # of 1-3 neighbors
    13 = max # of 1-4 neighbors
    16 = max # of special neighbors
  special bonds CPU = 0.000 seconds
Generated 21 of 21 mixed pair_coeff terms from arithmetic mixing rule
Neighbor list info ...
  update every 1 steps, delay 10 steps, check yes
  max neighbors/atom: 22, page size: 2200
  master list distance cutoff = 14
  ghost atom cutoff = 14
  binsize = 7, bins = 15 15 15
  1 neighbor lists, perpetual/occasional/extra = 1 0 0
  (1) pair lj/cut/coul/cut, perpetual
      attributes: half, newton on
      pair build: half/bin/newton
      stencil: half/bin/3d
      bin: standard
Setting up Verlet run ...
  Unit style    : real
  Current step  : 0
  Time step     : 1
Per MPI rank memory allocation (min/avg/max) = 17.85 | 17.85 | 17.85 Mbytes
     Time         Step         TotEng         KinEng         PotEng          Temp          Press          Volume    
 0                      0   25.110497      18.779103      6.3313935      370.58824      7.6261965      1000000      
 1                      1   20.452624      13.707104      6.74552        270.49701      2.7342277      1000000      
Loop time of 0.000187422 on 1 procs for 1 steps with 22 atoms

Performance: 460.992 ns/day, 0.052 hours/ns, 5335.553 timesteps/s
49.1% CPU use with 1 MPI tasks x 1 OpenMP threads

MPI task timing breakdown:
Section |  min time  |  avg time  |  max time  |%varavg| %total
---------------------------------------------------------------
Pair    | 6.282e-06  | 6.282e-06  | 6.282e-06  |   0.0 |  3.35
Bond    | 1.181e-05  | 1.181e-05  | 1.181e-05  |   0.0 |  6.30
Neigh   | 0          | 0          | 0          |   0.0 |  0.00
Comm    | 9.62e-07   | 9.62e-07   | 9.62e-07   |   0.0 |  0.51
Output  | 0.00010882 | 0.00010882 | 0.00010882 |   0.0 | 58.06
Modify  | 5.5353e-05 | 5.5353e-05 | 5.5353e-05 |   0.0 | 29.53
Other   |            | 4.192e-06  |            |       |  2.24

Nlocal:             22 ave          22 max          22 min
Histogram: 1 0 0 0 0 0 0 0 0 0
Nghost:              0 ave           0 max           0 min
Histogram: 1 0 0 0 0 0 0 0 0 0
Neighs:            174 ave         174 max         174 min
Histogram: 1 0 0 0 0 0 0 0 0 0

Total # of neighbors = 174
Ave neighs/atom = 7.9090909
Ave special neighs/atom = 8.9090909
Neighbor list builds = 0
Dangerous builds = 0
Total wall time: 0:00:00
Total wall time: 0:00:00
