14
 Atoms. Timestep: 0
1 1.03884 -11.0753 7.69489
2 1.94553 -10.8979 7.17028
2 0.286706 -11.4827 7.00805
2 1.27639 -11.8928 8.39674
1 0.645263 -9.85603 8.55852
2 0.25939 -8.93759 7.93025
2 -0.245475 -10.1444 9.17308
1 1.81195 -9.46985 9.43841
2 2.74772 -9.38622 8.86828
2 2.03083 -10.3424 10.1702
1 1.61522 -8.09805 10.2243
2 1.46606 -8.1091 11.3695
2 2.55943 -7.5932 10.0431
2 0.906824 -7.514 9.65535
14
 Atoms. Timestep: 1
1 1.03867 -11.0756 7.69529
2 1.94828 -10.8969 7.16737
2 0.286481 -11.4807 7.00865
2 1.27586 -11.8919 8.39508
1 0.644396 -9.85549 8.55794
2 0.264512 -8.94753 7.93565
2 -0.24174 -10.1432 9.17151
1 1.8123 -9.47002 9.43955
2 2.74606 -9.38622 8.86767
2 2.02875 -10.3346 10.1647
1 1.61551 -8.0986 10.2244
2 1.4656 -8.11023 11.3602
2 2.55972 -7.59182 10.0447
2 0.904632 -7.51216 9.65727
