22
 Atoms. Timestep: 0
1 1.16322 4.79744 -2.46832
2 1.73872 5.6791 -2.18622
1 1.14844 6.26823 -1.48437
1 2.18621 6.22309 -3.01804
3 2.97967 5.04292 -1.55675
4 3.86619 4.87212 -2.32102
5 2.97217 4.81294 -0.256777
6 2.17323 5.23272 0.196625
2 3.97595 4.14298 0.544112
7 3.42992 4.21151 1.48499
2 3.98918 2.58549 0.117098
1 2.91094 2.45627 0.0233011
1 4.27864 2.46549 -0.92689
1 4.47443 1.88309 0.79479
3 5.3435 4.73149 0.756492
4 6.15866 4.77766 -0.185363
5 5.70377 5.18406 1.96999
6 5.1698 5.30871 2.81818
2 7.10604 5.52145 2.22815
7 7.62289 4.71075 1.71461
7 7.31076 6.46569 1.72357
7 7.36036 5.58854 3.28594
22
 Atoms. Timestep: 1
1 1.14802 4.81109 -2.47697
2 1.7383 5.67946 -2.18438
1 1.1226 6.25778 -1.4955
1 2.19944 6.20992 -3.01748
3 2.97999 5.03944 -1.56141
4 3.86901 4.8673 -2.3268
5 2.9669 4.8117 -0.259072
6 2.17392 5.235 0.201473
2 3.97814 4.14454 0.539628
7 3.44533 4.20031 1.48889
2 3.99101 2.5855 0.122107
1 2.9131 2.43958 0.0520879
1 4.30628 2.45412 -0.912998
1 4.45817 1.89371 0.823033
3 5.34018 4.73002 0.763187
4 6.15595 4.78432 -0.182797
5 5.70899 5.18357 1.96934
6 5.1721 5.3157 2.81456
2 7.10116 5.5229 2.22794
7 7.63451 4.72981 1.70387
7 7.32331 6.46569 1.72803
7 7.38217 5.61234 3.27729
