
# Define name of log file
#log            butane_C_stability.log
# Model system
units           real
atom_style      atomic
newton         on   ## off for Nequip

#read_data Butane.data
read_data       butane_nvt_equil.data  ##but1.data
Reading data file ...
  orthogonal box = (-20.000000 -20.000000 -20.000000) to (20.000000 20.000000 20.000000)
  1 by 1 by 1 MPI processor grid
  reading atoms ...
  14 atoms
  read_data CPU = 0.002 seconds
#group           mobile union all



#boundary        p p p
pair_style      allegro  ##nequip
pair_coeff      * * But_BD_SPC_500K_500Frames.pth C H
mass            1 12
mass            2 1.008

neighbor        2.0 bin
neigh_modify    every 1 delay 0 check yes



# Setup timestep
timestep        1

# Define thermo output
#thermo 1000
thermo          500
thermo_style    custom step time temp pe ke etotal press density #lx ly lz vol density


#Create initial velocity distribution
velocity	all create 500 432567 dist uniform

## Fix commands
fix 5 all plumed plumedfile plumed_but.dat outfile plumed.out # Use plumed to analyze CVs

fix 2 all nvt/gpu temp 500 500 100 ## iso 1.0 1.0 1000.0

# Define Dumping
#dump 1 all xyz 1000 water255_minimized.xyz
dump myDump2 all custom 1000 forces.dump id type x y z fx fy fz
dump Dumpdcd all dcd 1000 but_Boltz_CtC.dcd

restart 2000000 but_dpmd.restart

#run 5000
#run 5000000
run 10000000

CITE-CITE-CITE-CITE-CITE-CITE-CITE-CITE-CITE-CITE-CITE-CITE-CITE

Your simulation uses code contributions which should be cited:

- GPU package (short-range, long-range and three-body potentials):

@Article{Brown11,
 author = {W. M. Brown, P. Wang, S. J. Plimpton, A. N. Tharrington},
 title = {Implementing Molecular Dynamics on Hybrid High Performance Computers - Short Range Forces},
 journal = {Comp.~Phys.~Comm.},
 year =    2011,
 volume =  182,
 pages =   {898--911}
}

@Article{Brown12,
 author = {W. M. Brown, A. Kohlmeyer, S. J. Plimpton, A. N. Tharrington},
 title = {Implementing Molecular Dynamics on Hybrid High Performance Computers - Particle-Particle Particle-Mesh},
 journal = {Comp.~Phys.~Comm.},
 year =    2012,
 volume =  183,
 pages =   {449--459}
}

@Article{Brown13,
 author = {W. M. Brown, Y. Masako},
 title = {Implementing Molecular Dynamics on Hybrid High Performance Computers – Three-Body Potentials},
 journal = {Comp.~Phys.~Comm.},
 year =    2013,
 volume =  184,
 pages =   {2785--2793}
}

@Article{Trung15,
 author = {T. D. Nguyen, S. J. Plimpton},
 title = {Accelerating dissipative particle dynamics simulations for soft matter systems},
 journal = {Comput.~Mater.~Sci.},
 year =    2015,
 volume =  100,
 pages =   {173--180}
}

@Article{Trung17,
 author = {T. D. Nguyen},
 title = {GPU-accelerated Tersoff potentials for massively parallel Molecular Dynamics simulations},
 journal = {Comp.~Phys.~Comm.},
 year =    2017,
 volume =  212,
 pages =   {113--122}
}

@Article{Nikolskiy19,
 author = {V. Nikolskiy, V. Stegailov},
 title = {GPU acceleration of four-site water models in LAMMPS},
 journal = {Proceeding of the International Conference on Parallel Computing (ParCo 2019), Prague, Czech Republic},
 year =    2019
}

CITE-CITE-CITE-CITE-CITE-CITE-CITE-CITE-CITE-CITE-CITE-CITE-CITE

Neighbor list info ...
  update every 1 steps, delay 0 steps, check yes
  max neighbors/atom: 2000, page size: 100000
  master list distance cutoff = 6
  ghost atom cutoff = 6
  binsize = 3, bins = 14 14 14
  1 neighbor lists, perpetual/occasional/extra = 1 0 0
  (1) pair allegro, perpetual
      attributes: full, newton on, ghost
      pair build: full/bin/ghost
      stencil: full/ghost/bin/3d
      bin: standard
Per MPI rank memory allocation (min/avg/max) = 4.335 | 4.335 | 4.335 Mbytes
Step Time Temp PotEng KinEng TotEng Press Density 
       0            0          500   -17983.606    19.375265   -17964.231    82.859527 0.0015069391 
     500          500      553.176    -17986.41    21.435863   -17964.974    -12.18349 0.0015069391 
    1000         1000    517.51068   -17975.976    20.053814   -17955.923   -70.717953 0.0015069391 
    1500         1500    662.34502   -17980.142    25.666221   -17954.476    39.713319 0.0015069391 
    2000         2000    710.91239   -17984.354    27.548232   -17956.806    26.227535 0.0015069391 
    2500         2500    457.14047   -17978.716    17.714436   -17961.001   -28.946309 0.0015069391 
    3000         3000    352.10838    -17982.82    13.644387   -17969.176   -36.580877 0.0015069391 
    3500         3500    515.14876    -17985.78    19.962288   -17965.818   -26.189797 0.0015069391 
    4000         4000    530.25801   -17979.954    20.547779   -17959.406    56.157742 0.0015069391 
    4500         4500    327.92055   -17986.176    12.707095   -17973.469    27.949378 0.0015069391 
    5000         5000    456.53508   -17985.822    17.690977   -17968.131   -7.0342707 0.0015069391 
    5500         5500    466.46496   -17980.038    18.075765   -17961.963   -38.761298 0.0015069391 
    6000         6000    669.44949   -17985.564    25.941523   -17959.622   -28.970002 0.0015069391 
    6500         6500    515.78236   -17988.101     19.98684   -17968.114   0.55991503 0.0015069391 
    7000         7000    438.62621   -17984.773    16.996998   -17967.776    32.332326 0.0015069391 
    7500         7500     487.0316   -17984.962    18.872733    -17966.09    6.2391052 0.0015069391 
    8000         8000    699.06842   -17975.294    27.089272   -17948.205   -33.330898 0.0015069391 
    8500         8500    656.71243    -17975.89    25.447955   -17950.442   -17.164741 0.0015069391 
    9000         9000    387.95421   -17973.768    15.033432   -17958.734   -94.161279 0.0015069391 
    9500         9500    380.08541   -17980.499    14.728511    -17965.77    23.915826 0.0015069391 
   10000        10000    388.63233   -17981.972    15.059709   -17966.912    49.341761 0.0015069391 
   10500        10500    513.04457   -17984.708    19.880749   -17964.827   -37.775546 0.0015069391 
   11000        11000     825.9625   -17980.648    32.006485   -17948.641    65.632177 0.0015069391 
   11500        11500    622.94444    -17974.53    24.139428   -17950.391   -128.38345 0.0015069391 
   12000        12000    594.00644   -17978.311    23.018065   -17955.293    43.209963 0.0015069391 
   12500        12500    395.47584   -17974.468    15.324899   -17959.144   -46.378223 0.0015069391 
   13000        13000    598.33103   -17988.724    23.185645   -17965.539     45.54015 0.0015069391 
   13500        13500    343.58054   -17985.964    13.313928    -17972.65    -11.93488 0.0015069391 
   14000        14000    478.61909   -17984.898    18.546744   -17966.351   -99.575625 0.0015069391 
   14500        14500    501.96709   -17978.942    19.451491    -17959.49   -28.888539 0.0015069391 
   15000        15000    560.41769    -17979.11    21.716483   -17957.394    8.7511448 0.0015069391 
   15500        15500    665.04768   -17983.769    25.770951   -17957.998   -9.9060604 0.0015069391 
   16000        16000    462.32242   -17980.039    17.915239   -17962.124    71.660048 0.0015069391 
   16500        16500    450.19597   -17980.988    17.445333   -17963.543    33.166269 0.0015069391 
   17000        17000    436.50192   -17980.133    16.914681   -17963.218    18.720567 0.0015069391 
   17500        17500      459.928   -17978.644    17.822454   -17960.821   -52.177996 0.0015069391 
   18000        18000    758.75602   -17980.342    29.402199    -17950.94    29.574113 0.0015069391 
   18500        18500    700.06875   -17979.925    27.128035   -17952.797   -48.186131 0.0015069391 
   19000        19000    591.32215   -17975.819    22.914047   -17952.905   -60.291382 0.0015069391 
   19500        19500    314.83461   -17987.215    12.200008   -17975.015   -35.977872 0.0015069391 
   20000        20000    540.84975   -17976.483    20.958215   -17955.525     84.19698 0.0015069391 
   20500        20500    560.41952   -17978.304    21.716554   -17956.588   -30.127554 0.0015069391 
   21000        21000    594.75955   -17974.463    23.047248   -17951.416    21.585774 0.0015069391 
   21500        21500    701.04967   -17976.244    27.166047   -17949.078   0.16770019 0.0015069391 
   22000        22000    481.26369   -17980.653    18.649223   -17962.004   -37.779733 0.0015069391 
   22500        22500    479.11754   -17981.678    18.566059   -17963.112   -32.376581 0.0015069391 
   23000        23000     518.1171   -17982.128    20.077313    -17962.05    75.508719 0.0015069391 
   23500        23500     594.1141   -17975.495    23.022236   -17952.472   -65.882704 0.0015069391 
   24000        24000      636.264   -17977.807    24.655568   -17953.152   -51.732895 0.0015069391 
   24500        24500    514.38564   -17979.367    19.932717   -17959.434   -31.333507 0.0015069391 
   25000        25000    529.88199   -17983.239    20.533208   -17962.705    37.575165 0.0015069391 
   25500        25500    353.91129   -17981.215     13.71425     -17967.5    19.241643 0.0015069391 
   26000        26000    494.52351   -17977.423    19.163048    -17958.26   -35.841536 0.0015069391 
   26500        26500    677.09942    -17982.82    26.237962   -17956.582   -53.117014 0.0015069391 
   27000        27000     455.3936   -17981.824    17.646744   -17964.177    30.108302 0.0015069391 
   27500        27500    384.20933   -17986.035    14.888316   -17971.147   -57.336101 0.0015069391 
   28000        28000    396.38249   -17984.227    15.360032   -17968.867   -26.936465 0.0015069391 
   28500        28500    388.15932   -17981.474    15.041379   -17966.433   -58.950131 0.0015069391 
   29000        29000     518.1562   -17980.731    20.078828   -17960.652   -31.467047 0.0015069391 
   29500        29500    616.09369   -17978.346    23.873958   -17954.472   -42.142812 0.0015069391 
   30000        30000    502.22713   -17975.046    19.461568   -17955.584    37.532293 0.0015069391 
   30500        30500    483.94638   -17978.802    18.753179   -17960.049    -18.03666 0.0015069391 
   31000        31000    460.85166   -17983.517    17.858247   -17965.658    23.931004 0.0015069391 
   31500        31500    509.24347   -17984.293    19.733455   -17964.559    71.484667 0.0015069391 
   32000        32000    391.69199   -17970.821    15.178273   -17955.643   -17.069375 0.0015069391 
   32500        32500    429.33444   -17969.422    16.636937   -17952.785   -10.660636 0.0015069391 
   33000        33000    623.08186    -17977.58    24.144753   -17953.435   -14.816649 0.0015069391 
   33500        33500    437.90018    -17972.81    16.968864   -17955.841    70.946644 0.0015069391 
   34000        34000    282.92198   -17989.102    10.963377   -17978.139   -26.341007 0.0015069391 
   34500        34500    451.94929   -17979.491    17.513275   -17961.977    -24.50502 0.0015069391 
   35000        35000    379.68044   -17976.256    14.712819   -17961.543    39.850854 0.0015069391 
   35500        35500     630.0487   -17981.954    24.414722    -17957.54    27.350288 0.0015069391 
   36000        36000    637.21355   -17983.955    24.692363   -17959.263    22.866512 0.0015069391 
   36500        36500     595.9318   -17985.702    23.092673    -17962.61   0.67390961 0.0015069391 
   37000        37000    284.05536   -17988.238    11.007296   -17977.231    -7.241127 0.0015069391 
   37500        37500    596.91161   -17984.444    23.130642   -17961.314    12.725867 0.0015069391 
   38000        38000    621.97841   -17981.643    24.101993   -17957.541   -14.992824 0.0015069391 
   38500        38500    509.44783   -17978.784    19.741374   -17959.043    80.387086 0.0015069391 
   39000        39000    457.90785   -17983.472    17.744172   -17965.728    45.561558 0.0015069391 
   39500        39500    442.47507   -17985.313    17.146144   -17968.167   -32.438379 0.0015069391 
   40000        40000    501.80787   -17977.959    19.445321   -17958.513     13.01305 0.0015069391 
   40500        40500    611.98902   -17976.433    23.714899   -17952.718    8.6345359 0.0015069391 
   41000        41000    729.89756   -17977.385    28.283918   -17949.101   -58.603116 0.0015069391 
   41500        41500    485.10222   -17976.486    18.797968   -17957.688   -76.447407 0.0015069391 
   42000        42000    441.27676   -17981.092    17.099709   -17963.992   -34.372384 0.0015069391 
   42500        42500    447.56223   -17981.992    17.343274   -17964.648   -41.058279 0.0015069391 
   43000        43000    556.12149   -17980.273    21.550003   -17958.723   -46.056529 0.0015069391 
   43500        43500    766.46388   -17980.236    29.700882   -17950.535    6.5818556 0.0015069391 
   44000        44000    697.82084   -17985.876    27.040928   -17958.835    39.799429 0.0015069391 
   44500        44500    377.81299   -17979.139    14.640454   -17964.499    29.636945 0.0015069391 
   45000        45000    372.03739   -17975.778    14.416646   -17961.362   0.64412488 0.0015069391 
   45500        45500    522.48183   -17983.644    20.246448   -17963.397     -31.0146 0.0015069391 
   46000        46000    452.31743   -17972.205     17.52754   -17954.678   -32.561527 0.0015069391 
   46500        46500    691.03782   -17975.322    26.778082   -17948.544    19.961293 0.0015069391 
   47000        47000    722.81451   -17978.837    28.009446   -17950.828   -44.845595 0.0015069391 
   47500        47500    393.81007   -17976.423    15.260349   -17961.162   -19.967939 0.0015069391 
   48000        48000    589.86844   -17975.341    22.857715   -17952.483   -9.1989323 0.0015069391 
   48500        48500    524.98364   -17972.996    20.343395   -17952.653    71.743804 0.0015069391 
   49000        49000    467.73318   -17972.187    18.124909   -17954.062    41.588729 0.0015069391 
   49500        49500    488.38894   -17982.661    18.925331   -17963.735    43.084887 0.0015069391 
   50000        50000    437.47818   -17978.221    16.952512   -17961.268   -8.3713158 0.0015069391 
   50500        50500    504.08487   -17974.105    19.533556   -17954.572    69.288311 0.0015069391 
   51000        51000     380.6874   -17977.257    14.751839   -17962.505   -8.4281342 0.0015069391 
   51500        51500    429.50232   -17981.492    16.643443   -17964.848    17.337706 0.0015069391 
   52000        52000      329.717   -17982.007    12.776709    -17969.23   -21.874926 0.0015069391 
   52500        52500    523.10512   -17976.756    20.270601   -17956.486    19.717389 0.0015069391 
   53000        53000    518.44096   -17977.515    20.089862   -17957.425   -21.778924 0.0015069391 
   53500        53500    449.21601   -17975.211    17.407359   -17957.804    2.1392258 0.0015069391 
   54000        54000    513.01553   -17982.569    19.879624    -17962.69   -58.010578 0.0015069391 
   54500        54500    679.15784   -17981.993    26.317727   -17955.675    -34.84236 0.0015069391 
   55000        55000    746.62347    -17980.35    28.932056   -17951.418    14.815728 0.0015069391 
   55500        55500    703.42935   -17976.304     27.25826   -17949.045   -1.6294808 0.0015069391 
   56000        56000    604.71021   -17982.099    23.432842   -17958.666    -76.74503 0.0015069391 
   56500        56500    395.47615    -17978.07    15.324911   -17962.745   -59.960459 0.0015069391 
   57000        57000    394.48121   -17981.054    15.286356   -17965.768     26.64906 0.0015069391 
   57500        57500    361.58653   -17984.607     14.01167   -17970.595    9.9155282 0.0015069391 
   58000        58000    503.86144   -17984.493    19.524898   -17964.968      -5.6738 0.0015069391 
   58500        58500    610.63015   -17979.487    23.662242   -17955.824   -3.6895307 0.0015069391 
   59000        59000    485.86088   -17983.509    18.827367   -17964.681    38.101605 0.0015069391 
   59500        59500    385.74157    -17978.81     14.94769   -17963.862   -33.219475 0.0015069391 
   60000        60000    293.66021   -17973.991    11.379489   -17962.611    3.4793277 0.0015069391 
   60500        60500    426.05912   -17973.323    16.510017   -17956.813    23.818166 0.0015069391 
   61000        61000    624.74038   -17976.208    24.209021   -17951.998    25.544021 0.0015069391 
   61500        61500    595.61685   -17977.324    23.080469   -17954.243   -41.749696 0.0015069391 
   62000        62000    394.26876   -17978.922    15.278124   -17963.644    22.350181 0.0015069391 
   62500        62500    437.13769   -17978.485    16.939317   -17961.546   -56.897261 0.0015069391 
   63000        63000     554.0484   -17972.019     21.46967   -17950.549   -83.086966 0.0015069391 
   63500        63500    634.80386   -17968.699    24.598986     -17944.1   -64.593319 0.0015069391 
   64000        64000    460.17757   -17980.053    17.832125   -17962.221   -5.5055248 0.0015069391 
   64500        64500    426.54736   -17981.175    16.528936   -17964.646   -47.409221 0.0015069391 
   65000        65000    328.80911   -17975.631    12.741527   -17962.889   -54.988079 0.0015069391 
   65500        65500      577.048   -17974.661    22.360916     -17952.3   -4.4988334 0.0015069391 
   66000        66000    576.28515   -17980.293    22.331355   -17957.962   -29.511398 0.0015069391 
   66500        66500    394.98274   -17977.579    15.305791   -17962.274    30.116257 0.0015069391 
   67000        67000    408.72372   -17980.251    15.838261   -17964.413   -15.991579 0.0015069391 
   67500        67500    335.60068   -17977.599    13.004705   -17964.595   -33.330898 0.0015069391 
   68000        68000     469.8516   -17973.931    18.206999   -17955.724   -34.922833 0.0015069391 
   68500        68500    430.60503   -17973.723    16.686173   -17957.037   -74.313758 0.0015069391 
   69000        69000    323.15367   -17977.994    12.522376   -17965.471   -17.229605 0.0015069391 
   69500        69500    356.64672   -17975.292     13.82025   -17961.472    9.1539851 0.0015069391 
   70000        70000    495.60914   -17974.654    19.205117   -17955.449   -66.185704 0.0015069391 
   70500        70500    440.76728   -17978.677    17.079966   -17961.597   -34.354279 0.0015069391 
   71000        71000    379.64386   -17981.618    14.711401   -17966.907   -32.585802 0.0015069391 
   71500        71500     552.8583   -17976.887    21.423553   -17955.464    14.830586 0.0015069391 
   72000        72000    611.08581   -17976.034      23.6799   -17952.354   -6.4067961 0.0015069391 
   72500        72500    531.11868   -17978.752    20.581131   -17958.171   -3.2908194 0.0015069391 
   73000        73000    375.08117   -17978.606    14.534594   -17964.071   -45.420956 0.0015069391 
   73500        73500    632.52253   -17982.582    24.510584   -17958.071    14.456836 0.0015069391 
   74000        74000    339.14709   -17978.402     13.14213   -17965.259     57.20282 0.0015069391 
   74500        74500    414.86102   -17982.557    16.076085   -17966.481   -5.7434638 0.0015069391 
   75000        75000    514.53103   -17987.741    19.938351   -17967.803   -11.612027 0.0015069391 
   75500        75500    476.09196   -17976.474    18.448816   -17958.025    35.092101 0.0015069391 
   76000        76000    686.22805   -17984.055    26.591701   -17957.464    31.595405 0.0015069391 
   76500        76500    514.16227   -17981.839    19.924061   -17961.915    34.018548 0.0015069391 
   77000        77000    386.83245   -17978.379    14.989963   -17963.389    14.860484 0.0015069391 
   77500        77500      551.605   -17978.381    21.374986   -17957.006    14.936536 0.0015069391 
   78000        78000    558.87511   -17973.823    21.656707   -17952.167   -66.612141 0.0015069391 
   78500        78500    726.33884   -17970.067    28.146016   -17941.921   -29.784381 0.0015069391 
   79000        79000    367.55471   -17974.316     14.24294   -17960.073    27.438057 0.0015069391 
   79500        79500     459.2915   -17982.579    17.797789   -17964.781    21.084211 0.0015069391 
   80000        80000    536.70133   -17978.683    20.797461   -17957.885    25.355738 0.0015069391 
   80500        80500    592.70242   -17975.453    22.967533   -17952.485   -68.544712 0.0015069391 
   81000        81000    748.95824   -17979.518    29.022529   -17950.495   -40.022223 0.0015069391 
   81500        81500     369.4239   -17978.676    14.315372   -17964.361   -71.533136 0.0015069391 
   82000        82000     383.1722   -17978.164    14.848126   -17963.316    42.153272 0.0015069391 
   82500        82500    694.24733   -17973.584    26.902452   -17946.682   -42.474908 0.0015069391 
   83000        83000    529.55381   -17974.177    20.520491   -17953.657   -28.977216 0.0015069391 
   83500        83500    442.00692   -17976.646    17.128003   -17959.518     -3.48972 0.0015069391 
   84000        84000    339.21706   -17977.813    13.144841   -17964.668    87.383085 0.0015069391 
   84500        84500    462.83924    -17983.61    17.935266   -17965.675   -60.731358 0.0015069391 
   85000        85000    429.75509   -17971.858    16.653238   -17955.205   -75.210646 0.0015069391 
   85500        85500    533.39191   -17977.143     20.66922   -17956.474    36.015111 0.0015069391 
   86000        86000    473.67912    -17981.63    18.355317   -17963.274    19.786201 0.0015069391 
   86500        86500    373.44541   -17983.644    14.471208   -17969.173    33.837672 0.0015069391 
   87000        87000    516.82418   -17982.042    20.027211   -17962.014   -60.444256 0.0015069391 
   87500        87500    588.04967     -17979.1    22.787237   -17956.312    -28.37993 0.0015069391 
   88000        88000     318.4461   -17977.602    12.339955   -17965.262    58.393956 0.0015069391 
   88500        88500    234.91166   -17975.954    9.1029516   -17966.851   -1.0996144 0.0015069391 
   89000        89000    486.92006   -17983.412    18.868411   -17964.543    16.291922 0.0015069391 
   89500        89500    380.68732   -17975.824    14.751836   -17961.072    -56.90648 0.0015069391 
   90000        90000    505.28203   -17975.082    19.579947   -17955.502     17.28557 0.0015069391 
   90500        90500    747.28855   -17978.196    28.957828   -17949.238   -77.782931 0.0015069391 
   91000        91000     463.1328   -17972.181    17.946642   -17954.235    62.873765 0.0015069391 
   91500        91500    458.32179   -17980.272    17.760213   -17962.512    65.231334 0.0015069391 
   92000        92000    406.96055   -17978.357    15.769937   -17962.587   -33.399166 0.0015069391 
   92500        92500    471.68407   -17983.007    18.278008   -17964.729   -1.8014604 0.0015069391 
   93000        93000    443.39335   -17974.591    17.181727   -17957.409    69.607429 0.0015069391 
   93500        93500     445.2097   -17976.993    17.252112   -17959.741    -37.95408 0.0015069391 
   94000        94000    288.80333   -17978.666    11.191282   -17967.475   -18.730568 0.0015069391 
   94500        94500    410.24037   -17978.466    15.897032   -17962.569   -100.81121 0.0015069391 
   95000        95000    492.58064   -17977.428    19.087761    -17958.34   -1.7461763 0.0015069391 
   95500        95500     577.7885   -17978.028    22.389611   -17955.639   -11.777531 0.0015069391 
   96000        96000    533.32293   -17977.399    20.666546   -17956.732    102.03401 0.0015069391 
   96500        96500    458.81226   -17978.509    17.779218    -17960.73    61.254834 0.0015069391 
   97000        97000    592.17236    -17980.88    22.946993   -17957.933    -3.104707 0.0015069391 
   97500        97500     356.9615   -17977.215    13.832447   -17963.382   -59.157374 0.0015069391 
   98000        98000    437.58118   -17977.389    16.956503   -17960.433   -52.068822 0.0015069391 
   98500        98500    622.94509   -17968.822    24.139453   -17944.682    122.02081 0.0015069391 
   99000        99000    589.93586   -17974.726    22.860328   -17951.865   -8.4917846 0.0015069391 
   99500        99500    404.04945   -17970.621    15.657131   -17954.964    14.569766 0.0015069391 
  100000       100000    513.69278   -17979.884    19.905868   -17959.978    21.940284 0.0015069391 
  100500       100500    530.00278   -17981.422    20.537889   -17960.884    66.447507 0.0015069391 
  101000       101000    459.95718   -17972.361    17.823585   -17954.537    4.9647661 0.0015069391 
  101500       101500    537.39895   -17976.841    20.824495   -17956.017   -3.4843187 0.0015069391 
  102000       102000    525.41452   -17983.511    20.360092    -17963.15    60.413661 0.0015069391 
  102500       102500    443.89887     -17979.4    17.201317   -17962.198   -30.299973 0.0015069391 
  103000       103000    516.56702   -17976.459    20.017246   -17956.441     26.55415 0.0015069391 
  103500       103500    321.27222   -17974.954    12.449469   -17962.505    2.4893702 0.0015069391 
  104000       104000    364.00015   -17982.904    14.105199   -17968.799    42.604348 0.0015069391 
  104500       104500    522.36548   -17979.099    20.241939   -17958.857    28.488944 0.0015069391 
  105000       105000     426.0655   -17974.051    16.510264   -17957.541   -78.534996 0.0015069391 
  105500       105500    448.94354   -17978.075    17.396801   -17960.678   -45.149512 0.0015069391 
  106000       106000     397.2116   -17977.072     15.39216    -17961.68   -15.280449 0.0015069391 
  106500       106500    409.01859   -17981.106    15.849687   -17965.256    6.5411908 0.0015069391 
  107000       107000    578.63541   -17980.784    22.422429   -17958.361    84.253174 0.0015069391 
  107500       107500    581.34109   -17974.844    22.527276   -17952.317    14.357596 0.0015069391 
  108000       108000    544.49503   -17980.064    21.099471   -17958.965    63.482944 0.0015069391 
  108500       108500    423.90425   -17976.906    16.426515    -17960.48   -47.112791 0.0015069391 
  109000       109000    522.23948   -17973.237    20.237057       -17953    46.850107 0.0015069391 
  109500       109500    408.58943   -17966.894    15.833057   -17951.061    54.911427 0.0015069391 
  110000       110000    387.56025   -17969.216    15.018165   -17954.198    5.0752675 0.0015069391 
  110500       110500    299.01889   -17983.096    11.587141   -17971.509   -16.126935 0.0015069391 
  111000       111000    412.05697   -17968.354    15.967426   -17952.387    61.625925 0.0015069391 
  111500       111500    523.60986   -17972.795     20.29016   -17952.505   -58.349266 0.0015069391 
  112000       112000    454.12786    -17988.92    17.597695   -17971.323    19.150291 0.0015069391 
  112500       112500    528.27197   -17980.682    20.470819   -17960.211   -8.3655045 0.0015069391 
  113000       113000      549.117   -17977.614    21.278575   -17956.336   -5.5757991 0.0015069391 
  113500       113500    500.63806   -17968.152     19.39999   -17948.752     19.29993 0.0015069391 
  114000       114000    669.62659   -17981.849    25.948386   -17955.901   -42.511606 0.0015069391 
  114500       114500    521.55371   -17977.789    20.210483   -17957.578  -0.58071871 0.0015069391 
  115000       115000    324.38227   -17977.901    12.569985   -17965.331    27.264786 0.0015069391 
  115500       115500    276.13062   -17975.822    10.700208   -17965.122    75.814546 0.0015069391 
  116000       116000    577.26156   -17979.538    22.369192   -17957.169    39.021217 0.0015069391 
  116500       116500    514.55429   -17978.887    19.939252   -17958.948    46.443844 0.0015069391 
  117000       117000    371.39873   -17980.467    14.391898   -17966.075   -57.857435 0.0015069391 
  117500       117500    300.07337    -17974.65    11.628002   -17963.022   -44.397839 0.0015069391 
  118000       118000    508.15312   -17974.372    19.691203   -17954.681   -55.667989 0.0015069391 
  118500       118500    538.07381   -17983.142    20.850646   -17962.291   -2.0345507 0.0015069391 
  119000       119000    725.93889   -17978.034    28.130517   -17949.903    23.305468 0.0015069391 
  119500       119500    650.01673   -17972.148    25.188493   -17946.959    81.994772 0.0015069391 
  120000       120000    617.48798   -17974.905    23.927987   -17950.977    36.349396 0.0015069391 
  120500       120500    561.60129   -17979.924    21.762348   -17958.162    45.489429 0.0015069391 
  121000       121000     479.3644   -17978.192    18.575625   -17959.616   -21.271605 0.0015069391 
  121500       121500    346.82128   -17971.953    13.439509   -17958.514    -37.35594 0.0015069391 
  122000       122000    765.67812   -17965.736    29.670433   -17936.065   -20.589746 0.0015069391 
  122500       122500    483.52412   -17977.982    18.736816   -17959.245    16.691814 0.0015069391 
  123000       123000    432.24956   -17978.155      16.7499   -17961.405    27.511112 0.0015069391 
  123500       123500    510.98474   -17985.128     19.80093   -17965.328    17.683118 0.0015069391 
  124000       124000    612.11641   -17981.672    23.719836   -17957.952   -10.247669 0.0015069391 
  124500       124500    674.22049   -17979.681    26.126402   -17953.554    47.024581 0.0015069391 
  125000       125000    495.14543   -17979.879    19.187148   -17960.692    -47.03777 0.0015069391 
  125500       125500    507.51649   -17981.788    19.666533   -17962.122   -18.605448 0.0015069391 
  126000       126000    405.21654   -17976.201    15.702356   -17960.499    36.375828 0.0015069391 
  126500       126500     699.5291   -17975.194    27.107124   -17948.087    71.859493 0.0015069391 
  127000       127000    426.54452     -17968.8    16.528827   -17952.271    19.709798 0.0015069391 
  127500       127500    354.68522   -17973.298     13.74424   -17959.554   -41.806508 0.0015069391 
  128000       128000    463.32393   -17978.254    17.954048     -17960.3    36.532542 0.0015069391 
  128500       128500      458.134   -17973.125    17.752936   -17955.372    4.1952658 0.0015069391 
  129000       129000    513.14982   -17973.001    19.884828   -17953.116   -19.446093 0.0015069391 
  129500       129500    454.50612   -17977.719    17.612353   -17960.106    -88.32933 0.0015069391 
  130000       130000    395.81805   -17975.282     15.33816   -17959.944   -14.160825 0.0015069391 
  130500       130500    401.18363   -17979.209    15.546079   -17963.663    59.597625 0.0015069391 
  131000       131000    587.62284   -17967.728    22.770697   -17944.958    20.492193 0.0015069391 
  131500       131500    800.38124   -17978.356    31.015198   -17947.341    26.504578 0.0015069391 
  132000       132000    350.69075   -17972.301    13.589453   -17958.711   -69.811374 0.0015069391 
  132500       132500    428.49396   -17976.022    16.604368   -17959.418    5.5972318 0.0015069391 
  133000       133000    501.05948   -17975.064    19.416321   -17955.648   -28.837822 0.0015069391 
  133500       133500    648.15218   -17981.059    25.116241   -17955.943   -42.462027 0.0015069391 
  134000       134000    397.97045    -17978.16    15.421566   -17962.738    25.468916 0.0015069391 
  134500       134500    358.65769   -17971.378    13.898176    -17957.48    1.0639674 0.0015069391 
  135000       135000     632.2081   -17973.428      24.4984   -17948.929   -18.963877 0.0015069391 
  135500       135500    760.29571   -17979.388    29.461862   -17949.927   -26.328397 0.0015069391 
  136000       136000    532.04897   -17983.555     20.61718   -17962.937   -33.966175 0.0015069391 
  136500       136500    619.87139   -17980.405    24.020345   -17956.385    17.455156 0.0015069391 
  137000       137000    635.07434   -17977.139    24.609468    -17952.53     98.31644 0.0015069391 
  137500       137500    654.37007   -17980.112    25.357188   -17954.755    19.026756 0.0015069391 
  138000       138000    414.25956   -17979.635    16.052778   -17963.583    74.057255 0.0015069391 
  138500       138500    481.25012   -17979.877    18.648698   -17961.228    49.639004 0.0015069391 
  139000       139000    498.78879   -17978.999     19.32833   -17959.671   -48.002881 0.0015069391 
  139500       139500    583.45697   -17975.655    22.609267   -17953.046   -15.283574 0.0015069391 
  140000       140000    623.87609   -17972.785     24.17553   -17948.609   -64.893848 0.0015069391 
  140500       140500    546.97197   -17977.688    21.195454   -17956.493    34.499767 0.0015069391 
  141000       141000    560.45477   -17981.228     21.71792    -17959.51    45.340627 0.0015069391 
  141500       141500    266.52655    -17981.97    10.328045   -17971.642    43.163863 0.0015069391 
  142000       142000    519.25304   -17973.802    20.121331   -17953.681   -13.269326 0.0015069391 
  142500       142500    551.45662   -17972.865    21.369237   -17951.496   -4.2952674 0.0015069391 
  143000       143000     636.0885   -17972.414    24.648767   -17947.765   -68.027143 0.0015069391 
  143500       143500    658.25577   -17973.334    25.507761   -17947.826     2.511982 0.0015069391 
  144000       144000    462.33185   -17974.135    17.915605   -17956.219   -14.801837 0.0015069391 
  144500       144500    486.19407   -17977.862    18.840278   -17959.021    1.1741514 0.0015069391 
  145000       145000    522.19611   -17981.026    20.235376    -17960.79    50.944402 0.0015069391 
  145500       145500    602.33753   -17973.844    23.340899   -17950.504    31.525015 0.0015069391 
  146000       146000    606.81163   -17972.776    23.514273   -17949.262    5.0802554 0.0015069391 
  146500       146500    429.55953   -17974.597     16.64566   -17957.951    31.689828 0.0015069391 
  147000       147000    349.38957   -17978.395    13.539031   -17964.856   -3.6431146 0.0015069391 
  147500       147500    544.30426    -17979.68    21.092079   -17958.587    21.197758 0.0015069391 
  148000       148000    643.14235   -17977.758    24.922107   -17952.836   -25.246792 0.0015069391 
  148500       148500      549.697   -17978.676     21.30105   -17957.375   -4.0136614 0.0015069391 
  149000       149000     553.4788   -17981.682    21.447597   -17960.234   -45.934505 0.0015069391 
  149500       149500    341.62755   -17970.396    13.238249   -17957.157   -82.165196 0.0015069391 
  150000       150000    568.92725   -17977.682    22.046233   -17955.636   -5.4416336 0.0015069391 
  150500       150500    485.79177    -17965.03    18.824689   -17946.205    79.285409 0.0015069391 
  151000       151000    530.02036   -17975.318     20.53857   -17954.779    52.774023 0.0015069391 
  151500       151500    486.35288    -17970.99    18.846432   -17952.144    66.321625 0.0015069391 
  152000       152000    290.95169   -17981.037    11.274532   -17969.763    60.941071 0.0015069391 
  152500       152500    443.56571    -17972.04    17.188407   -17954.851  -0.51720312 0.0015069391 
  153000       153000    490.35201   -17973.434    19.001401   -17954.433    134.21779 0.0015069391 
  153500       153500    518.22495   -17978.453    20.081492   -17958.372    15.849466 0.0015069391 
  154000       154000    267.17532   -17977.231    10.353185   -17966.878   -77.424895 0.0015069391 
  154500       154500     460.5182   -17979.462    17.845325   -17961.616    35.151763 0.0015069391 
  155000       155000    505.71069   -17976.384    19.596558   -17956.788   -29.490776 0.0015069391 
  155500       155500    557.18339   -17974.048    21.591152   -17952.457   -24.719302 0.0015069391 
  156000       156000    421.91171   -17971.984    16.349302   -17955.635   -67.017904 0.0015069391 
  156500       156500    562.41039   -17979.577    21.793701   -17957.783   -5.0266959 0.0015069391 
  157000       157000    550.29533   -17969.779    21.324236   -17948.455    101.24401 0.0015069391 
  157500       157500    623.93195   -17976.183    24.177694   -17952.005   -19.880563 0.0015069391 
  158000       158000    345.65851   -17971.508    13.394451   -17958.114   -33.340106 0.0015069391 
  158500       158500    429.35302    -17974.98    16.637657   -17958.342    10.980416 0.0015069391 
  159000       159000    568.19272   -17982.299    22.017769   -17960.281    21.212198 0.0015069391 
  159500       159500     588.0591    -17974.91    22.787602   -17952.122   -13.224032 0.0015069391 
  160000       160000    572.92231   -17967.114    22.201043   -17944.913   -52.351531 0.0015069391 
  160500       160500    774.85402   -17979.436    30.026004    -17949.41    53.483034 0.0015069391 
  161000       161000    572.27465   -17981.847    22.175946   -17959.671    36.503001 0.0015069391 
  161500       161500    324.69998    -17973.31    12.582297   -17960.727   -3.1420617 0.0015069391 
  162000       162000    633.86019   -17972.723    24.562419    -17948.16    10.391554 0.0015069391 
  162500       162500    607.66384   -17967.659    23.547296   -17944.111    46.930707 0.0015069391 
  163000       163000    506.65149   -17967.459    19.633014   -17947.826   -19.036203 0.0015069391 
  163500       163500    612.63561   -17976.214    23.739955   -17952.474   -18.578567 0.0015069391 
  164000       164000    561.01387   -17980.184    21.739585   -17958.444    14.256161 0.0015069391 
  164500       164500    609.95378   -17973.012    23.636033   -17949.376    40.570574 0.0015069391 
  165000       165000    639.46439   -17976.192    24.779584   -17951.412   -83.207188 0.0015069391 
  165500       165500    503.40098   -17971.857    19.507055    -17952.35    19.366812 0.0015069391 
  166000       166000    511.45966   -17977.778    19.819333   -17957.958    36.643115 0.0015069391 
  166500       166500    342.58319   -17980.211     13.27528   -17966.936    12.338701 0.0015069391 
  167000       167000    353.50969   -17980.344    13.698688   -17966.645   0.67196462 0.0015069391 
  167500       167500     438.0233   -17970.353    16.973635   -17953.379    23.990532 0.0015069391 
  168000       168000     646.0826     -17976.7    25.036044   -17951.664    46.855247 0.0015069391 
  168500       168500    304.90462   -17981.153    11.815216   -17969.338   -36.511611 0.0015069391 
  169000       169000    554.69543   -17974.298    21.494742   -17952.803   -21.331609 0.0015069391 
  169500       169500    629.81136   -17971.947    24.405524   -17947.542   -6.5932344 0.0015069391 
  170000       170000    619.47652   -17980.365    24.005044    -17956.36   -52.898245 0.0015069391 
  170500       170500    598.48346   -17974.024    23.191552   -17950.833    16.181813 0.0015069391 
  171000       171000    530.07598   -17968.208    20.540725   -17947.668   -6.6935708 0.0015069391 
  171500       171500    573.96448   -17969.425    22.241428   -17947.183      3.23072 0.0015069391 
  172000       172000    447.88059   -17973.534    17.355611   -17956.178   -73.197482 0.0015069391 
  172500       172500    514.89629   -17979.207    19.952505   -17959.255    49.811746 0.0015069391 
  173000       173000      346.495   -17973.445    13.426865   -17960.018    6.2352291 0.0015069391 
  173500       173500     772.7343   -17971.788    29.943864   -17941.844   -50.617255 0.0015069391 
  174000       174000    398.27293   -17973.311    15.433287   -17957.878   -17.268555 0.0015069391 
  174500       174500    517.33341   -17980.607    20.046944    -17960.56    17.968676 0.0015069391 
  175000       175000    487.32972   -17984.181    18.884285   -17965.296   0.47085653 0.0015069391 
  175500       175500    303.51139   -17977.854    11.761227   -17966.093   -30.215732 0.0015069391 
  176000       176000    461.42554   -17970.113    17.880484   -17952.233    14.694422 0.0015069391 
  176500       176500      594.778   -17976.685    23.047963   -17953.637    -6.272874 0.0015069391 
  177000       177000    280.21816   -17975.911    10.858603   -17965.053   -54.866696 0.0015069391 
  177500       177500    480.36478    -17976.03     18.61439   -17957.416   -2.9445819 0.0015069391 
  178000       178000    569.38578   -17971.225    22.064001   -17949.161    14.668553 0.0015069391 
  178500       178500     587.1581   -17973.046    22.752688   -17950.294    90.417072 0.0015069391 
  179000       179000    345.03466   -17973.047    13.370276   -17959.677    -55.82231 0.0015069391 
  179500       179500    501.76759   -17982.967     19.44376   -17963.523    32.685302 0.0015069391 
  180000       180000    490.78958   -17974.711    19.018357   -17955.693   -37.301166 0.0015069391 
  180500       180500    460.60611   -17972.875    17.848731   -17955.027   -64.436386 0.0015069391 
  181000       181000    421.61526   -17980.379    16.337815   -17964.042   -25.236855 0.0015069391 
  181500       181500    523.25588   -17981.969    20.276443   -17961.692   -25.819075 0.0015069391 
  182000       182000    491.01681   -17978.968    19.027162   -17959.941    70.615073 0.0015069391 
  182500       182500    448.07087   -17970.515    17.362984   -17953.152 -0.030310532 0.0015069391 
  183000       183000     472.8968   -17963.242    18.325002   -17944.917    135.38362 0.0015069391 
  183500       183500    442.71095   -17969.692    17.155284   -17952.536    73.632627 0.0015069391 
  184000       184000    559.48436   -17981.788    21.680316   -17960.108    63.120492 0.0015069391 
  184500       184500    543.58468   -17979.488    21.064195   -17958.424    22.694493 0.0015069391 
  185000       185000    580.11903   -17975.392     22.47992   -17952.912    36.972501 0.0015069391 
  185500       185500    559.76563   -17973.397    21.691215   -17951.706   -6.0748471 0.0015069391 
  186000       186000    372.59644   -17980.963     14.43831   -17966.525   -23.703392 0.0015069391 
  186500       186500    275.14638   -17976.271    10.662068   -17965.609   -21.953146 0.0015069391 
  187000       187000    434.43631   -17970.845    16.834638   -17954.011   -53.606059 0.0015069391 
  187500       187500    578.52205    -17971.32    22.418037   -17948.902    44.185757 0.0015069391 
  188000       188000    451.85353   -17972.424    17.509564   -17954.915    64.518549 0.0015069391 
  188500       188500    483.10975   -17978.313    18.720759   -17959.592    17.729825 0.0015069391 
  189000       189000    371.49365   -17970.942    14.395576   -17956.547   -23.196914 0.0015069391 
  189500       189500    544.34194   -17971.166    21.093539   -17950.073   -35.108603 0.0015069391 
  190000       190000    822.01657   -17969.995    31.853578   -17938.141    20.333539 0.0015069391 
  190500       190500    417.34177   -17971.851    16.172215   -17955.679    86.795021 0.0015069391 
  191000       191000     468.8178   -17983.291    18.166938   -17965.124    -35.25238 0.0015069391 
  191500       191500    417.38547   -17977.816    16.173908   -17961.642    29.508569 0.0015069391 
  192000       192000    425.78503   -17977.526    16.499396   -17961.026    9.6665567 0.0015069391 
  192500       192500    473.62029   -17972.828    18.353038   -17954.475     6.935129 0.0015069391 
  193000       193000    581.77089   -17979.755    22.543931   -17957.211     6.587461 0.0015069391 
  193500       193500    294.84644   -17973.209    11.425456   -17961.784    84.177259 0.0015069391 
  194000       194000    601.28114   -17979.583    23.299963   -17956.283    -26.63413 0.0015069391 
  194500       194500    424.94692   -17972.404    16.466919   -17955.938   -49.883426 0.0015069391 
  195000       195000    464.58614    -17980.82    18.002959   -17962.817   -92.134179 0.0015069391 
  195500       195500    524.09419   -17978.443    20.308928   -17958.134    3.8511115 0.0015069391 
  196000       196000    535.35744   -17966.866    20.745385    -17946.12    13.797319 0.0015069391 
  196500       196500    596.42374   -17971.244    23.111736   -17948.132    10.804633 0.0015069391 
  197000       197000    465.33541   -17981.223    18.031994   -17963.191    12.010548 0.0015069391 
  197500       197500    395.47523   -17976.889    15.324875   -17961.564    46.666176 0.0015069391 
  198000       198000    617.75188   -17975.632    23.938213   -17951.694    24.155418 0.0015069391 
  198500       198500    552.00124   -17974.192    21.390341   -17952.802   -59.968138 0.0015069391 
  199000       199000    544.52354   -17979.552    21.100576   -17958.451   -95.868458 0.0015069391 
  199500       199500    402.85816   -17977.175    15.610968   -17961.564   -66.027689 0.0015069391 
  200000       200000    444.07926   -17978.346    17.208307   -17961.137   -12.442158 0.0015069391 
  200500       200500    450.35867    -17969.75    17.451638   -17952.298      24.9841 0.0015069391 
  201000       201000    553.48189   -17973.772    21.447717   -17952.324   0.69284389 0.0015069391 
  201500       201500     528.3967   -17969.771    20.475653   -17949.295   -57.731002 0.0015069391 
  202000       202000    562.16771   -17977.323    21.784297   -17955.539   -18.485385 0.0015069391 
  202500       202500    433.45855   -17976.614    16.796749   -17959.817     -2.61474 0.0015069391 
  203000       203000    481.67092   -17976.893    18.665004   -17958.228     64.31451 0.0015069391 
  203500       203500    596.51451   -17969.123    23.115254   -17946.008   -47.170925 0.0015069391 
  204000       204000    519.07654   -17968.577    20.114491   -17948.462    154.12982 0.0015069391 
  204500       204500    544.74027   -17977.029    21.108974    -17955.92    23.398954 0.0015069391 
  205000       205000    380.53504   -17976.518    14.745935   -17961.772   -5.6684633 0.0015069391 
  205500       205500    285.71337   -17974.701    11.071545    -17963.63   -22.717441 0.0015069391 
  206000       206000     434.4537   -17979.933    16.835311   -17963.098   -13.988576 0.0015069391 
  206500       206500    440.86083   -17972.983    17.083591   -17955.899   -32.174046 0.0015069391 
  207000       207000    485.64184   -17972.352    18.818879   -17953.533    17.472894 0.0015069391 
  207500       207500    429.04233   -17971.945    16.625618    -17955.32    18.961294 0.0015069391 
  208000       208000    366.62382   -17980.792    14.206868   -17966.585     14.72726 0.0015069391 
  208500       208500    458.28399   -17980.091    17.758748   -17962.333   -1.0850966 0.0015069391 
  209000       209000     464.6759   -17980.239    18.006438   -17962.232   -26.192232 0.0015069391 
  209500       209500    493.67736   -17980.767     19.13026   -17961.636    -9.450578 0.0015069391 
  210000       210000    395.76148   -17979.267    15.335967   -17963.931    17.216414 0.0015069391 
  210500       210500    428.50254   -17980.944    16.604701   -17964.339    24.386415 0.0015069391 
  211000       211000    545.64235   -17976.134    21.143931    -17954.99    43.345896 0.0015069391 
  211500       211500    397.81273   -17974.963    15.415454   -17959.548   -10.300751 0.0015069391 
  212000       212000    312.42005   -17977.273    12.106443   -17965.166     10.06115 0.0015069391 
  212500       212500     341.4685   -17975.428    13.232086   -17962.196   -35.227715 0.0015069391 
  213000       213000    636.40713   -17977.276    24.661114   -17952.615    18.291771 0.0015069391 
  213500       213500    633.60813    -17973.38    24.552651   -17948.827    -2.131586 0.0015069391 
  214000       214000    382.86294   -17960.522    14.836142   -17945.686    19.314681 0.0015069391 
  214500       214500     571.4512   -17978.109    22.144037   -17955.965   -32.195953 0.0015069391 
  215000       215000    434.98361   -17971.419    16.855846   -17954.563   -36.659771 0.0015069391 
  215500       215500    343.31561   -17977.363    13.303662   -17964.059   -17.554135 0.0015069391 
  216000       216000    340.08686   -17975.786    13.178546   -17962.607    23.232148 0.0015069391 
  216500       216500    443.87684   -17969.382    17.200463   -17952.181    20.757165 0.0015069391 
  217000       217000    723.48733   -17979.064    28.035518   -17951.029     27.30032 0.0015069391 
  217500       217500      384.708   -17976.994    14.907639   -17962.086   -27.323981 0.0015069391 
  218000       218000    489.33978   -17984.074    18.962176   -17965.111    1.5281918 0.0015069391 
  218500       218500    441.96295   -17974.613    17.126299   -17957.487    5.8806311 0.0015069391 
  219000       219000    416.97349   -17966.207    16.157944   -17950.049   -21.643671 0.0015069391 
  219500       219500    491.77461   -17974.477    19.056527    -17955.42    10.517395 0.0015069391 
  220000       220000    332.45043   -17980.406     12.88263   -17967.524    53.677954 0.0015069391 
  220500       220500     482.0726   -17980.858    18.680569   -17962.177    20.390869 0.0015069391 
  221000       221000    502.94122   -17974.197    19.489239   -17954.708   -53.902376 0.0015069391 
  221500       221500    454.01531   -17971.981    17.593334   -17954.388   -70.270417 0.0015069391 
  222000       222000     582.3963   -17971.925    22.568166   -17949.357   -74.698588 0.0015069391 
  222500       222500    502.57574   -17972.362    19.475077   -17952.887    17.689873 0.0015069391 
  223000       223000    642.60036   -17974.046    24.901105   -17949.144   -1.4994659 0.0015069391 
  223500       223500    533.70323   -17978.155    20.681283   -17957.473    -32.42721 0.0015069391 
  224000       224000    284.68942   -17969.369    11.031866   -17958.337    72.917919 0.0015069391 
  224500       224500    526.12847    -17972.17    20.387757   -17951.783   -20.762004 0.0015069391 
  225000       225000    630.49453   -17972.034    24.431997   -17947.602   -4.3436894 0.0015069391 
  225500       225500    582.93754   -17965.753    22.589139   -17943.164    27.995693 0.0015069391 
  226000       226000    493.05549   -17966.159    19.106162   -17947.053   -89.258821 0.0015069391 
  226500       226500    516.07456   -17972.527    19.998163   -17952.529   -72.150795 0.0015069391 
  227000       227000     455.8927   -17977.301    17.666084   -17959.635   -27.182822 0.0015069391 
  227500       227500    461.46497   -17982.539    17.882013   -17964.657   -7.1869154 0.0015069391 
  228000       228000    365.20931   -17982.119    14.152054   -17967.967   -9.0207677 0.0015069391 
  228500       228500    643.70452   -17976.013    24.943892   -17951.069    1.7901152 0.0015069391 
  229000       229000    597.62835   -17973.079    23.158416   -17949.921    5.6584329 0.0015069391 
  229500       229500    358.05398   -17973.534    13.874782   -17959.659    -24.64354 0.0015069391 
  230000       230000    397.75315    -17977.38    15.413146   -17961.967    33.005127 0.0015069391 
  230500       230500    483.09512   -17978.189    18.720192   -17959.469   -0.9667709 0.0015069391 
  231000       231000    656.64026   -17979.692    25.445159   -17954.247    26.348975 0.0015069391 
  231500       231500    424.87248   -17965.734    16.464034    -17949.27   -38.966586 0.0015069391 
  232000       232000    355.46578   -17970.598    13.774488   -17956.824    16.715725 0.0015069391 
  232500       232500    389.06295   -17978.222    15.076396   -17963.145    10.639972 0.0015069391 
  233000       233000    405.48141   -17980.413     15.71262     -17964.7   -7.5381039 0.0015069391 
  233500       233500    533.46649   -17970.881     20.67211   -17950.208   -13.698995 0.0015069391 
  234000       234000    570.21596   -17971.545    22.096171   -17949.449   -13.870884 0.0015069391 
  234500       234500    395.95911   -17979.513    15.343626    -17964.17    1.6721194 0.0015069391 
  235000       235000    513.44953   -17980.806    19.896442    -17960.91    16.913238 0.0015069391 
  235500       235500    585.48119   -17977.901    22.687707   -17955.213   -2.1451614 0.0015069391 
  236000       236000    388.32401   -17965.163    15.047761   -17950.115    19.727165 0.0015069391 
  236500       236500    323.60089   -17967.252    12.539706   -17954.713    88.234839 0.0015069391 
  237000       237000    348.15684   -17976.007    13.491262   -17962.516    26.202361 0.0015069391 
  237500       237500    414.54296   -17980.649     16.06376   -17964.585    58.803922 0.0015069391 
  238000       238000      457.096   -17969.234    17.712712   -17951.521    27.056061 0.0015069391 
  238500       238500    494.28164   -17973.318    19.153676   -17954.164   -41.471805 0.0015069391 
  239000       239000    256.46321   -17979.813    9.9380854   -17969.875    1.6152179 0.0015069391 
  239500       239500    344.21189    -17969.96    13.338393   -17956.621   -68.001274 0.0015069391 
  240000       240000      451.425   -17970.894    17.492958   -17953.401    -56.45146 0.0015069391 
  240500       240500    322.80262   -17967.923    12.508773   -17955.415   -26.636833 0.0015069391 
  241000       241000    417.50236   -17978.075    16.178438   -17961.896   -53.990814 0.0015069391 
  241500       241500    394.06415   -17974.978    15.270195   -17959.708     32.74435 0.0015069391 
  242000       242000    541.68123   -17979.757    20.990435   -17958.766    -4.504716 0.0015069391 
  242500       242500    387.01403   -17976.136    14.996999   -17961.139   -14.866935 0.0015069391 
  243000       243000    544.59866   -17974.873    21.103487   -17953.769    8.6667654 0.0015069391 
  243500       243500    689.65016   -17973.702     26.72431   -17946.978    66.682628 0.0015069391 
  244000       244000    457.77056   -17969.316    17.738852   -17951.577   -56.091623 0.0015069391 
  244500       244500    737.16861   -17976.927    28.565675   -17948.361    25.491816 0.0015069391 
  245000       245000    521.90729   -17973.571    20.224185   -17953.347   -11.797432 0.0015069391 
  245500       245500    448.61011   -17977.208     17.38388   -17959.824   -66.240829 0.0015069391 
  246000       246000    293.17236   -17968.189    11.360584   -17956.828    5.5790053 0.0015069391 
  246500       246500    203.13543   -17964.955    7.8716056   -17957.083   -10.144451 0.0015069391 
  247000       247000    512.03422   -17971.861    19.841598   -17952.019   -11.516068 0.0015069391 
  247500       247500    393.89105   -17972.312    15.263487   -17957.049    38.418387 0.0015069391 
  248000       248000    398.18148   -17980.195    15.429744   -17964.765    87.868463 0.0015069391 
  248500       248500    472.05023   -17977.919    18.292197   -17959.627   -14.902483 0.0015069391 
  249000       249000     439.3262   -17974.695    17.024123   -17957.671   -77.395734 0.0015069391 
  249500       249500    512.99334    -17970.96    19.878764   -17951.081   -26.925423 0.0015069391 
  250000       250000    477.37085   -17978.769    18.498374   -17960.271    15.591631 0.0015069391 
  250500       250500    474.07334   -17976.602    18.370593   -17958.231     15.55523 0.0015069391 
  251000       251000    531.50328   -17963.949    20.596034   -17943.353    15.748068 0.0015069391 
  251500       251500    495.51639   -17972.629    19.201523   -17953.428   -5.7264761 0.0015069391 
  252000       252000    533.44267   -17978.525    20.671187   -17957.853   -75.167544 0.0015069391 
  252500       252500    620.29455    -17975.97    24.036743   -17951.933    84.905658 0.0015069391 
  253000       253000    765.11292    -17973.71    29.648532   -17944.062    26.516092 0.0015069391 
  253500       253500    514.03981   -17966.078    19.919316   -17946.158    95.753555 0.0015069391 
  254000       254000    511.23059   -17969.816    19.810457   -17950.006   -34.282958 0.0015069391 
  254500       254500    471.10546   -17980.989    18.255587   -17962.734     16.64262 0.0015069391 
  255000       255000     369.8382   -17977.342    14.331426   -17963.011   -7.1164047 0.0015069391 
  255500       255500    620.83427   -17975.088    24.057657    -17951.03    13.913852 0.0015069391 
  256000       256000    619.13325   -17976.046    23.991742   -17952.054   -66.726473 0.0015069391 
  256500       256500    573.10404   -17980.506    22.208086   -17958.298   -14.687659 0.0015069391 
  257000       257000    414.24042    -17972.17    16.052036   -17956.118   -8.5157638 0.0015069391 
  257500       257500    502.59216   -17968.805    19.475713   -17949.329    -21.26837 0.0015069391 
  258000       258000    447.34907   -17971.212    17.335014   -17953.877    83.843757 0.0015069391 
  258500       258500    445.08199     -17970.2    17.247163   -17952.952    -61.96055 0.0015069391 
  259000       259000    554.25261   -17982.893    21.477583   -17961.416   -5.5679599 0.0015069391 
  259500       259500    484.87886    -17975.78    18.789313   -17956.991   -5.2343612 0.0015069391 
  260000       260000    434.33991   -17966.008    16.830902   -17949.177   -94.425788 0.0015069391 
  260500       260500    489.98355    -17971.81    18.987122   -17952.823    39.027428 0.0015069391 
  261000       261000    475.12679   -17977.329    18.411415   -17958.918   -74.902946 0.0015069391 
  261500       261500    310.47536   -17980.892    12.031085   -17968.861   -102.62736 0.0015069391 
  262000       262000    557.11735   -17970.957    21.588593   -17949.369    11.347564 0.0015069391 
  262500       262500    579.63294   -17977.662    22.461084   -17955.201     68.61921 0.0015069391 
  263000       263000    561.40158   -17975.348    21.754609   -17953.593     57.27319 0.0015069391 
  263500       263500    388.59045    -17974.24    15.058086   -17959.182    23.283885 0.0015069391 
  264000       264000    494.19458   -17980.028    19.150302   -17960.878    39.302174 0.0015069391 
  264500       264500    759.00971   -17975.322    29.412029    -17945.91    41.169558 0.0015069391 
  265000       265000    615.80875   -17967.852    23.862916   -17943.989   -79.247252 0.0015069391 
  265500       265500    516.36554    -17980.78    20.009439   -17960.771    8.7625703 0.0015069391 
  266000       266000    421.91842   -17978.046    16.349563   -17961.697    62.021987 0.0015069391 
  266500       266500    484.11236   -17969.537    18.759611   -17950.778    1.0365741 0.0015069391 
  267000       267000    701.87076    -17977.13    27.197864   -17949.932   -57.180487 0.0015069391 
  267500       267500    382.01368    -17978.95    14.803233   -17964.147   -24.556456 0.0015069391 
  268000       268000    485.25763   -17977.782    18.803991   -17958.978     46.34876 0.0015069391 
  268500       268500    459.08833    -17970.48    17.789916    -17952.69   -80.924385 0.0015069391 
  269000       269000     350.8192   -17969.473     13.59443   -17955.879   -55.448173 0.0015069391 
  269500       269500    296.09817   -17979.127    11.473961   -17967.653   -27.499885 0.0015069391 
  270000       270000    396.87785   -17976.202    15.379227   -17960.823    -2.601472 0.0015069391 
  270500       270500    503.56439   -17974.777    19.513387   -17955.264   -15.453251 0.0015069391 
  271000       271000    521.19913   -17971.435    20.196743   -17951.238   -31.676505 0.0015069391 
  271500       271500    645.72014   -17972.847    25.021998   -17947.825    57.762903 0.0015069391 
  272000       272000    595.77362   -17969.494    23.086544   -17946.407    5.0938229 0.0015069391 
  272500       272500    623.48031   -17963.907    24.160193   -17939.747    14.348593 0.0015069391 
  273000       273000    415.19542   -17971.585    16.089043   -17955.496    3.3714209 0.0015069391 
  273500       273500    345.10073   -17975.055    13.372837   -17961.683    37.051872 0.0015069391 
  274000       274000    278.47865    -17965.01    10.791195   -17954.219   -114.63233 0.0015069391 
  274500       274500     409.5079   -17971.823    15.868648   -17955.955   -51.820929 0.0015069391 
  275000       275000    543.17863   -17976.726     21.04846   -17955.678    58.198538 0.0015069391 
  275500       275500    484.42497   -17965.708    18.771725   -17946.936    22.168485 0.0015069391 
  276000       276000    527.18779   -17971.813    20.428806   -17951.384    57.494241 0.0015069391 
  276500       276500    360.28975   -17970.155    13.961419   -17956.193   -55.921082 0.0015069391 
  277000       277000    375.47829   -17974.231    14.549983   -17959.682   -67.888251 0.0015069391 
  277500       277500     296.8347   -17967.148    11.502502   -17955.645   -31.245358 0.0015069391 
  278000       278000    582.25442     -17962.5    22.562668   -17939.937   -58.080268 0.0015069391 
  278500       278500     523.2781   -17966.491    20.277304   -17946.214    20.726064 0.0015069391 
  279000       279000    484.89437   -17967.885    18.789914   -17949.095   -41.792828 0.0015069391 
  279500       279500    545.04117   -17975.111    21.120635   -17953.991    38.637553 0.0015069391 
  280000       280000    491.32514    -17978.66     19.03911   -17959.621    13.233256 0.0015069391 
  280500       280500    725.80729   -17979.355    28.125418    -17951.23   -11.278926 0.0015069391 
  281000       281000    613.58281   -17964.732     23.77666   -17940.955     -69.9424 0.0015069391 
  281500       281500    668.32939   -17972.225    25.898119   -17946.327    68.221442 0.0015069391 
  282000       282000    242.34814   -17968.256    9.3911189   -17958.865   -9.4733953 0.0015069391 
  282500       282500    649.32743   -17980.213    25.161783   -17955.051    46.492522 0.0015069391 
  283000       283000     561.2079   -17968.073    21.747104   -17946.326    31.324596 0.0015069391 
  283500       283500    485.93118     -17973.6    18.830091    -17954.77   -118.13292 0.0015069391 
  284000       284000    472.89532   -17974.017    18.324945   -17955.692   -45.516799 0.0015069391 
  284500       284500    538.52296   -17981.784     20.86805   -17960.916   -40.616811 0.0015069391 
  285000       285000    426.71518   -17975.664     16.53544   -17959.129   -9.5967562 0.0015069391 
  285500       285500    420.72276   -17974.158     16.30323   -17957.854   -42.997359 0.0015069391 
  286000       286000    492.94039   -17977.032    19.101702    -17957.93   -46.056985 0.0015069391 
  286500       286500    510.74217   -17968.872     19.79153    -17949.08   -47.242957 0.0015069391 
  287000       287000    383.35876   -17973.525    14.855355    -17958.67   -7.9918177 0.0015069391 
  287500       287500    392.67634   -17976.616    15.216417     -17961.4   -17.513475 0.0015069391 
  288000       288000    391.11593   -17978.304     15.15595   -17963.148   -49.870574 0.0015069391 
  288500       288500    392.23938   -17968.336    15.199484   -17953.137   -27.327742 0.0015069391 
  289000       289000    571.12276   -17974.987     22.13131   -17952.856   -43.485701 0.0015069391 
  289500       289500    361.13876   -17973.848    13.994318   -17959.854   -23.261896 0.0015069391 
  290000       290000    490.00658   -17980.094    18.988015   -17961.106    -48.88973 0.0015069391 
  290500       290500    550.31839   -17972.797     21.32513   -17951.472    49.452643 0.0015069391 
  291000       291000    453.52398   -17975.297    17.574295   -17957.723     17.14681 0.0015069391 
  291500       291500    458.00973   -17980.681     17.74812   -17962.933   -23.420459 0.0015069391 
  292000       292000    429.10115   -17973.258    16.627897   -17956.631   -29.840132 0.0015069391 
  292500       292500    723.84461   -17975.719    28.049363    -17947.67   -11.911413 0.0015069391 
  293000       293000     585.3613   -17978.699    22.683061   -17956.016    2.4048722 0.0015069391 
  293500       293500    340.86744   -17974.108    13.208794   -17960.899    73.123276 0.0015069391 
  294000       294000    468.90439   -17981.423    18.170294   -17963.252    31.033532 0.0015069391 
  294500       294500    547.26865   -17976.803     21.20695   -17955.596   -27.298318 0.0015069391 
  295000       295000    481.42417   -17970.855    18.655442     -17952.2    4.9013299 0.0015069391 
  295500       295500    537.10071   -17978.615    20.812938   -17957.802    19.423022 0.0015069391 
  296000       296000    437.48156    -17982.06    16.952642   -17965.107    4.8275721 0.0015069391 
  296500       296500    385.65192   -17975.843    14.944217   -17960.899    5.9472232 0.0015069391 
  297000       297000    590.10603   -17973.388    22.866922   -17950.521    49.627204 0.0015069391 
  297500       297500    671.81761   -17973.576    26.033289   -17947.542   -38.669392 0.0015069391 
  298000       298000    538.40835   -17964.646    20.863609   -17943.782    61.022124 0.0015069391 
  298500       298500    514.92079   -17972.855    19.953454   -17952.901   -17.311076 0.0015069391 
  299000       299000    416.92975   -17972.871    16.156249   -17956.715   -60.267167 0.0015069391 
  299500       299500    514.00818   -17976.028     19.91809    -17956.11      60.6935 0.0015069391 
  300000       300000    669.17004   -17974.543    25.930694   -17948.613    29.270977 0.0015069391 
  300500       300500    589.02445    -17968.72     22.82501   -17945.895    70.721468 0.0015069391 
  301000       301000    465.61069    -17966.65    18.042661   -17948.607    81.799926 0.0015069391 
  301500       301500    462.12114   -17976.916     17.90744   -17959.008   -45.261392 0.0015069391 
  302000       302000    406.58901   -17980.569     15.75554   -17964.814    42.034604 0.0015069391 
  302500       302500    418.55571   -17977.206    16.219256   -17960.987   -4.2004173 0.0015069391 
  303000       303000    639.53569   -17977.416    24.782347   -17952.633   -20.286616 0.0015069391 
  303500       303500    464.18869   -17969.766    17.987558   -17951.778    2.6110866 0.0015069391 
  304000       304000    439.68057   -17984.591    17.037855   -17967.553   -10.443471 0.0015069391 
  304500       304500    486.78408   -17969.155    18.863141   -17950.292   -47.382084 0.0015069391 
  305000       305000    633.38907   -17975.562    24.544163   -17951.018     130.9259 0.0015069391 
  305500       305500    312.11661   -17975.027    12.094684   -17962.933    61.385975 0.0015069391 
  306000       306000    297.59277   -17977.341    11.531878   -17965.809   -103.63659 0.0015069391 
  306500       306500     523.6053   -17976.113    20.289983   -17955.823    18.753604 0.0015069391 
  307000       307000    524.49573   -17973.081    20.324488   -17952.757   -62.009928 0.0015069391 
  307500       307500    497.27474   -17966.947     19.26966   -17947.678    66.190989 0.0015069391 
  308000       308000    578.29177   -17974.147    22.409113   -17951.738   -20.340476 0.0015069391 
  308500       308500    550.54636    -17979.56    21.333964   -17958.226    22.362456 0.0015069391 
  309000       309000    506.06865   -17980.851    19.610429    -17961.24     11.49363 0.0015069391 
  309500       309500    410.14438   -17975.666    15.893312   -17959.773   -16.775215 0.0015069391 
  310000       310000    574.47525   -17973.777    22.261221   -17951.516   -49.651571 0.0015069391 
  310500       310500    507.36142   -17971.639    19.660524   -17951.979    32.945438 0.0015069391 
  311000       311000    560.78676   -17980.299    21.730784   -17958.568   -4.7369576 0.0015069391 
  311500       311500    482.67887    -17981.91    18.704062   -17963.206   -25.272475 0.0015069391 
  312000       312000    432.09699   -17971.749    16.743988   -17955.005    17.117888 0.0015069391 
  312500       312500    526.81772   -17969.763    20.414466   -17949.349   -14.121877 0.0015069391 
  313000       313000    511.86932   -17965.345    19.835208    -17945.51    161.90451 0.0015069391 
  313500       313500    597.27003   -17976.597     23.14453   -17953.452    10.456094 0.0015069391 
  314000       314000    385.43143   -17972.944    14.935672   -17958.009   -17.122023 0.0015069391 
  314500       314500    343.75433   -17974.092    13.320663   -17960.771    55.967278 0.0015069391 
  315000       315000    363.37859   -17975.446    14.081113   -17961.365   -36.397604 0.0015069391 
  315500       315500    497.98427   -17972.911    19.297155   -17953.613   -80.613633 0.0015069391 
  316000       316000     512.4948   -17977.323    19.859445   -17957.463   -90.052802 0.0015069391 
  316500       316500    415.08959    -17982.69    16.084942   -17966.605    37.973021 0.0015069391 
  317000       317000    527.02708   -17971.182    20.422579    -17950.76    74.141587 0.0015069391 
  317500       317500    580.69987   -17972.825    22.502428   -17950.323    49.621144 0.0015069391 
  318000       318000     357.6178   -17979.374     13.85788   -17965.516    5.1575848 0.0015069391 
  318500       318500    422.78738    -17980.77    16.383235   -17964.387    18.817405 0.0015069391 
  319000       319000    604.28824   -17974.905     23.41649   -17951.488    23.084748 0.0015069391 
  319500       319500    550.79896   -17969.305    21.343752   -17947.961   -12.422666 0.0015069391 
  320000       320000    463.02176   -17974.038    17.942339   -17956.096    19.691507 0.0015069391 
  320500       320500    483.80146   -17979.158    18.747563   -17960.411   0.53923519 0.0015069391 
  321000       321000    347.82835   -17972.789    13.478533   -17959.311    61.244361 0.0015069391 
  321500       321500    544.87089   -17975.055    21.114036   -17953.941    30.243105 0.0015069391 
  322000       322000    583.65875   -17966.216    22.617086   -17943.599   -16.426371 0.0015069391 
  322500       322500    596.32248   -17961.857    23.107813    -17938.75    125.18988 0.0015069391 
  323000       323000    518.36849   -17970.929    20.087054   -17950.842   -31.675139 0.0015069391 
  323500       323500    500.56465   -17976.539    19.397146   -17957.142   -11.088379 0.0015069391 
  324000       324000    428.16289   -17975.815    16.591539   -17959.224   -4.1254838 0.0015069391 
  324500       324500    304.99793   -17974.612    11.818832   -17962.793    32.084076 0.0015069391 
  325000       325000    488.76811   -17976.456    18.940024   -17957.516   -35.847233 0.0015069391 
  325500       325500    496.66318   -17970.058    19.245962   -17950.812    23.641625 0.0015069391 
  326000       326000    524.95017   -17973.409    20.342098   -17953.067    17.022888 0.0015069391 
  326500       326500    324.04374   -17976.683    12.556867   -17964.126   -39.953307 0.0015069391 
  327000       327000    663.06059   -17977.101     25.69395   -17951.407   -70.776684 0.0015069391 
  327500       327500    515.66083   -17973.399    19.982131   -17953.416    17.279464 0.0015069391 
  328000       328000    408.79422   -17976.664    15.840993   -17960.823   -51.580699 0.0015069391 
  328500       328500    461.64549   -17974.641    17.889008   -17956.751    9.0410951 0.0015069391 
  329000       329000     683.2537    -17969.24    26.476443   -17942.763   -3.7778814 0.0015069391 
  329500       329500    584.11471   -17971.623    22.634755   -17948.989   -24.745972 0.0015069391 
  330000       330000    555.43908   -17978.307    21.523559   -17956.783   -8.7098239 0.0015069391 
  330500       330500    557.34425   -17978.409    21.597385   -17956.812   -5.9324006 0.0015069391 
  331000       331000    649.54121   -17965.455    25.170067   -17940.285   -92.198927 0.0015069391 
  331500       331500    488.03008   -17969.816    18.911424   -17950.904    6.0686912 0.0015069391 
  332000       332000    455.29766   -17971.239    17.643026   -17953.596   -14.240576 0.0015069391 
  332500       332500    382.20571   -17970.674    14.810674   -17955.863   -24.514611 0.0015069391 
  333000       333000    470.42117   -17979.662     18.22907   -17961.433   -3.7942381 0.0015069391 
  333500       333500    393.30529   -17980.147    15.240789   -17964.906    25.760785 0.0015069391 
  334000       334000    469.13593   -17968.181    18.179266   -17950.002   -111.28087 0.0015069391 
  334500       334500     540.2149   -17974.298    20.933614   -17953.365    2.4753667 0.0015069391 
  335000       335000    524.65646   -17976.567    20.330716   -17956.236    49.302372 0.0015069391 
  335500       335500    560.29261   -17975.182    21.711636   -17953.471   -10.151674 0.0015069391 
  336000       336000    327.75399   -17971.431    12.700641   -17958.731   -26.003148 0.0015069391 
  336500       336500    339.33586   -17974.921    13.149445   -17961.771    10.594976 0.0015069391 
  337000       337000     435.5261   -17982.709    16.876868   -17965.832   -1.8890879 0.0015069391 
  337500       337500    378.70242   -17971.697     14.67492   -17957.022   -31.435944 0.0015069391 
  338000       338000    618.84435   -17977.295    23.980547   -17953.314    -37.32217 0.0015069391 
  338500       338500    427.30677   -17976.843    16.558364   -17960.284   -40.514655 0.0015069391 
  339000       339000    480.99091   -17974.185    18.638653   -17955.547   -59.622458 0.0015069391 
  339500       339500    602.71829   -17968.009    23.355654   -17944.653   -40.996439 0.0015069391 
  340000       340000    781.09132   -17969.212    30.267703   -17938.944   -3.2276592 0.0015069391 
  340500       340500    458.62624   -17962.697     17.77201   -17944.925   -39.495561 0.0015069391 
  341000       341000    648.03301   -17974.301    25.111623    -17949.19   -51.436745 0.0015069391 
  341500       341500    346.83204   -17978.574    13.439925   -17965.134    -58.80896 0.0015069391 
  342000       342000    478.54363   -17978.771     18.54382   -17960.227   -58.831663 0.0015069391 
  342500       342500    539.83174   -17973.328    20.918766   -17952.409   -23.915118 0.0015069391 
  343000       343000    455.68495   -17972.808    17.658034    -17955.15   -27.606351 0.0015069391 
  343500       343500    435.68379     -17976.2    16.882978   -17959.317   -16.045057 0.0015069391 
  344000       344000    436.86023    -17974.79    16.928566   -17957.861   -51.517537 0.0015069391 
  344500       344500     470.2345   -17976.297    18.221837   -17958.076   -41.241744 0.0015069391 
  345000       345000    360.55609   -17977.738     13.97174   -17963.767    1.4372968 0.0015069391 
  345500       345500    526.88196   -17973.644    20.416955   -17953.227    38.439757 0.0015069391 
  346000       346000    604.37497   -17968.405    23.419851   -17944.985    39.365662 0.0015069391 
  346500       346500    574.88278   -17970.126    22.277013   -17947.849    67.802681 0.0015069391 
  347000       347000    385.12149   -17969.321    14.923662   -17954.398    33.219019 0.0015069391 
  347500       347500    501.40186   -17980.282    19.429588   -17960.852   -30.097796 0.0015069391 
  348000       348000    312.79548   -17976.705    12.120991   -17964.584    25.696774 0.0015069391 
  348500       348500    546.62321   -17975.181     21.18194   -17953.999   -24.480879 0.0015069391 
  349000       349000    539.99448   -17968.406    20.925073   -17947.481   -40.210969 0.0015069391 
  349500       349500    714.39296   -17969.378    27.683106   -17941.695   -57.877615 0.0015069391 
  350000       350000    715.49233    -17972.35    27.725708   -17944.625    25.919138 0.0015069391 
  350500       350500    373.26386   -17970.258    14.464173   -17955.794    31.402561 0.0015069391 
  351000       351000    544.56158   -17969.224     21.10205   -17948.122   -57.966854 0.0015069391 
  351500       351500    550.67128   -17971.442    21.338804   -17950.103    6.6961223 0.0015069391 
  352000       352000    419.85844   -17973.171    16.269738   -17956.901   -23.137296 0.0015069391 
  352500       352500    374.69471   -17978.334    14.519619   -17963.814    15.208318 0.0015069391 
  353000       353000    514.01272   -17977.135    19.918266   -17957.217     39.85462 0.0015069391 
  353500       353500    614.85679   -17973.323    23.826027   -17949.497    41.262506 0.0015069391 
  354000       354000    391.59066   -17976.185    15.174346   -17961.011    5.4159351 0.0015069391 
  354500       354500    443.63832   -17979.008     17.19122   -17961.817   -3.7225261 0.0015069391 
  355000       355000    570.72655   -17976.388    22.115957   -17954.272    39.053668 0.0015069391 
  355500       355500    576.38785   -17972.033    22.335335   -17949.698   -29.273389 0.0015069391 
  356000       356000    357.98875     -17971.8    13.872254   -17957.928   -36.293623 0.0015069391 
  356500       356500    448.76965   -17978.694    17.390062   -17961.303   -0.1117535 0.0015069391 
  357000       357000    556.78592   -17981.338     21.57575   -17959.763    18.728936 0.0015069391 
  357500       357500    554.17869   -17975.988    21.474718   -17954.513   -89.028622 0.0015069391 
  358000       358000    606.05368   -17965.987    23.484902   -17942.502   -87.390885 0.0015069391 
  358500       358500     647.6318   -17967.269    25.096076   -17942.173    13.603562 0.0015069391 
  359000       359000     514.5201   -17969.695    19.937927   -17949.757    26.857011 0.0015069391 
  359500       359500     477.0635   -17977.895    18.486464   -17959.408   -2.5794555 0.0015069391 
  360000       360000    574.90627   -17976.683    22.277923   -17954.405    16.922094 0.0015069391 
  360500       360500    475.17403    -17974.23    18.413246   -17955.817    41.617717 0.0015069391 
  361000       361000    517.78854   -17968.198    20.064581   -17948.134   -27.948438 0.0015069391 
  361500       361500    559.17052   -17975.704    21.668154   -17954.036    50.303722 0.0015069391 
  362000       362000    536.54385   -17976.345    20.791359   -17955.554    33.391705 0.0015069391 
  362500       362500    501.25149   -17977.653    19.423761   -17958.229   -2.5455579 0.0015069391 
  363000       363000    524.97808   -17978.833    20.343179   -17958.489    -14.05039 0.0015069391 
  363500       363500    575.61937   -17973.889    22.305556   -17951.583    44.989002 0.0015069391 
  364000       364000    557.28394   -17972.833    21.595048   -17951.238    -34.14176 0.0015069391 
  364500       364500    608.24355   -17977.018     23.56976   -17953.448   -28.372538 0.0015069391 
  365000       365000     441.4608   -17978.536     17.10684    -17961.43    17.620296 0.0015069391 
  365500       365500    415.81306   -17976.482    16.112977    -17960.37    26.681943 0.0015069391 
  366000       366000    304.78512   -17971.437    11.810585   -17959.626   -4.9537185 0.0015069391 
  366500       366500    588.64777   -17955.658    22.810413   -17932.847   -69.258492 0.0015069391 
  367000       367000    411.64499   -17969.132    15.951462    -17953.18   -38.384732 0.0015069391 
  367500       367500    502.71308   -17974.579    19.480399   -17955.099    49.263263 0.0015069391 
  368000       368000    506.54073   -17980.192    19.628722   -17960.563    10.341114 0.0015069391 
  368500       368500    340.70913   -17967.465     13.20266   -17954.262    8.8021383 0.0015069391 
  369000       369000    635.23439   -17971.115     24.61567   -17946.499   -6.3950387 0.0015069391 
  369500       369500    779.57715   -17965.512    30.209028   -17935.303   -47.970098 0.0015069391 
  370000       370000    372.73452   -17964.919     14.44366   -17950.475   -76.214087 0.0015069391 
  370500       370500    362.44233    -17971.87    14.044833   -17957.825    -86.65882 0.0015069391 
  371000       371000    384.78467   -17972.811     14.91061     -17957.9   -40.518525 0.0015069391 
  371500       371500    503.10253   -17970.433     19.49549   -17950.937   -82.284633 0.0015069391 
  372000       372000    619.78647   -17970.337    24.017054    -17946.32   -9.0102726 0.0015069391 
  372500       372500    510.66774   -17975.252    19.788646   -17955.464   -44.345852 0.0015069391 
  373000       373000    418.87285   -17974.857    16.231545   -17958.625    9.1432379 0.0015069391 
  373500       373500    335.25884    -17975.57    12.991458   -17962.578   -12.519494 0.0015069391 
  374000       374000    327.22085   -17975.783    12.679982   -17963.103   -23.857149 0.0015069391 
  374500       374500    570.84705   -17975.322    22.120626   -17953.201   -7.7874913 0.0015069391 
  375000       375000     491.5701   -17965.853    19.048602   -17946.804   -45.186454 0.0015069391 
  375500       375500    492.12329   -17968.613    19.070038   -17949.543    -50.63301 0.0015069391 
  376000       376000    442.61401   -17974.451    17.151528   -17957.299      15.5853 0.0015069391 
  376500       376500    353.36525   -17972.329    13.693091   -17958.636    38.074648 0.0015069391 
[...]
 9908000      9908000    395.93052   -17965.968    15.342518   -17950.625 -0.097117312 0.0015069391 
 9908500      9908500    477.32842    -17952.37     18.49673   -17933.873   -53.891773 0.0015069391 
 9909000      9909000    676.90646   -17958.216    26.230485   -17931.986    2.3787882 0.0015069391 
 9909500      9909500    733.10949   -17956.519    28.408382   -17928.111   -70.996124 0.0015069391 
 9910000      9910000    575.49039   -17963.335    22.300558   -17941.034   -6.5625048 0.0015069391 
 9910500      9910500    625.74185   -17966.186    24.247829   -17941.939    -41.96619 0.0015069391 
 9911000      9911000    517.53643   -17965.047    20.054811   -17944.992   -39.693841 0.0015069391 
 9911500      9911500    385.42646   -17957.713     14.93548   -17942.777     74.43293 0.0015069391 
 9912000      9912000    504.07312   -17957.465    19.533101   -17937.932    73.275921 0.0015069391 
 9912500      9912500    459.24678   -17954.587    17.796056   -17936.791    23.998011 0.0015069391 
 9913000      9913000    576.43853   -17961.324    22.337299   -17938.986    52.445398 0.0015069391 
 9913500      9913500    452.23134   -17962.416    17.524204   -17944.892    71.372072 0.0015069391 
 9914000      9914000      576.351    -17957.47    22.333907   -17935.136   -52.856464 0.0015069391 
 9914500      9914500    561.54677   -17953.322    21.760235   -17931.562    36.282836 0.0015069391 
 9915000      9915000    504.00314   -17948.323    19.530389   -17928.792    22.580633 0.0015069391 
 9915500      9915500    642.61155   -17964.282    24.901538   -17939.381   -21.611768 0.0015069391 
 9916000      9916000    329.48897   -17955.941    12.767872   -17943.173    20.431127 0.0015069391 
 9916500      9916500    465.53068   -17958.516    18.039561   -17940.476    -39.74585 0.0015069391 
 9917000      9917000    578.82972   -17954.406    22.429959   -17931.976    39.759642 0.0015069391 
 9917500      9917500    525.06086   -17962.101    20.346387   -17941.755    14.119573 0.0015069391 
 9918000      9918000     648.1898   -17967.606    25.117699   -17942.489   -14.002703 0.0015069391 
 9918500      9918500    613.61085   -17963.709    23.777746   -17939.931    29.097697 0.0015069391 
 9919000      9919000    612.35639   -17959.437    23.729135   -17935.708   -41.768584 0.0015069391 
 9919500      9919500    704.52715   -17961.577    27.300801   -17934.276    9.1002732 0.0015069391 
 9920000      9920000    206.11657   -17966.193    7.9871264   -17958.206    13.682059 0.0015069391 
 9920500      9920500    609.91366   -17959.243    23.634478   -17935.609   -42.599727 0.0015069391 
 9921000      9921000    618.95201   -17963.406    23.984719   -17939.421    34.602005 0.0015069391 
 9921500      9921500    487.91824   -17968.198    18.907091    -17949.29   -21.833746 0.0015069391 
 9922000      9922000    284.30383   -17963.187    11.016924    -17952.17   -50.450099 0.0015069391 
 9922500      9922500    605.14147   -17958.414    23.449553   -17934.964    3.0397909 0.0015069391 
 9923000      9923000    545.65926   -17952.561    21.144586   -17931.416    -1.618229 0.0015069391 
 9923500      9923500    440.60026   -17957.277    17.073494   -17940.204   -23.645123 0.0015069391 
 9924000      9924000    536.88889   -17962.974    20.804729    -17942.17   -11.547369 0.0015069391 
 9924500      9924500    375.46461   -17962.171    14.549453   -17947.622    34.073969 0.0015069391 
 9925000      9925000    454.47268    -17958.57    17.611058   -17940.959    3.6751981 0.0015069391 
 9925500      9925500    562.05153    -17954.46    21.779795    -17932.68    62.622545 0.0015069391 
 9926000      9926000    442.44601   -17955.375    17.145018    -17938.23   -86.660227 0.0015069391 
 9926500      9926500    339.41307    -17964.36    13.152437   -17951.208    32.431722 0.0015069391 
 9927000      9927000    571.89599   -17967.628    22.161273   -17945.467   -42.235278 0.0015069391 
 9927500      9927500    533.73264   -17959.735    20.682423   -17939.052   -50.614559 0.0015069391 
 9928000      9928000    395.00437   -17947.708    15.306629   -17932.401   -44.167984 0.0015069391 
 9928500      9928500    553.86497   -17961.941    21.462561   -17940.478   -50.825336 0.0015069391 
 9929000      9929000    381.62991   -17959.975    14.788362   -17945.187    -23.32289 0.0015069391 
 9929500      9929500    330.56577   -17961.128    12.809599   -17948.318    -28.48661 0.0015069391 
 9930000      9930000    380.98638   -17966.911    14.763424   -17952.148    17.217964 0.0015069391 
 9930500      9930500    538.47782   -17959.408    20.866301   -17938.542    23.072728 0.0015069391 
 9931000      9931000    455.22624    -17958.49    17.640258    -17940.85    -11.66056 0.0015069391 
 9931500      9931500     379.5423   -17959.707    14.707466       -17945     83.35084 0.0015069391 
 9932000      9932000    300.78419   -17963.528    11.655547   -17951.872   -37.599775 0.0015069391 
 9932500      9932500    341.76906   -17959.064    13.243732   -17945.821    30.087342 0.0015069391 
 9933000      9933000    440.96493   -17954.212    17.087625   -17937.124   -59.030311 0.0015069391 
 9933500      9933500    675.57751   -17959.911    26.178987   -17933.732    47.655121 0.0015069391 
 9934000      9934000      572.882   -17949.531    22.199482   -17927.332   -50.955384 0.0015069391 
 9934500      9934500    794.98743   -17965.559    30.806185   -17934.753    55.012363 0.0015069391 
 9935000      9935000     548.3039   -17963.302    21.247067   -17942.054   -73.305673 0.0015069391 
 9935500      9935500    582.34114   -17964.883    22.566028   -17942.317   -33.196929 0.0015069391 
 9936000      9936000    401.42912   -17957.297    15.555591   -17941.742   -21.424156 0.0015069391 
 9936500      9936500    582.34574   -17959.237    22.566206   -17936.671    77.611544 0.0015069391 
 9937000      9937000    551.56603   -17954.878    21.373476   -17933.505    20.060912 0.0015069391 
 9937500      9937500    359.40241   -17952.198    13.927034   -17938.271   -75.180903 0.0015069391 
 9938000      9938000    440.05778   -17968.973    17.052472   -17951.921   -11.223995 0.0015069391 
 9938500      9938500    371.32824   -17955.557    14.389166   -17941.168    87.203603 0.0015069391 
 9939000      9939000    521.08448   -17961.012      20.1923    -17940.82     -26.4756 0.0015069391 
 9939500      9939500    291.14723   -17959.264     11.28211   -17947.982   -7.9044555 0.0015069391 
 9940000      9940000    499.26011   -17963.542    19.346594   -17944.195   0.65127065 0.0015069391 
 9940500      9940500    561.53045   -17960.436    21.759603   -17938.676    -48.58527 0.0015069391 
 9941000      9941000    532.61323   -17951.377    20.639045   -17930.738   -9.8588866 0.0015069391 
 9941500      9941500    626.96396   -17964.014    24.295186   -17939.719    11.701979 0.0015069391 
 9942000      9942000    369.28286   -17961.389    14.309907    -17947.08    47.653635 0.0015069391 
 9942500      9942500    320.75138   -17961.553    12.429286   -17949.124   -72.939673 0.0015069391 
 9943000      9943000    411.87134   -17964.956    15.960233   -17948.995    4.2695579 0.0015069391 
 9943500      9943500    374.45838   -17952.225    14.510461   -17937.715    7.8229183 0.0015069391 
 9944000      9944000    483.42517   -17956.512    18.732982   -17937.779   -14.656001 0.0015069391 
 9944500      9944500     445.2969   -17957.257    17.255491   -17940.001   -16.855518 0.0015069391 
 9945000      9945000    437.65107   -17961.783    16.959211   -17944.824     48.67727 0.0015069391 
 9945500      9945500    517.76728   -17963.776    20.063757   -17943.712   -27.230849 0.0015069391 
 9946000      9946000    611.30701   -17960.027    23.688471   -17936.339   -72.841368 0.0015069391 
 9946500      9946500    701.81016   -17961.171    27.195516   -17933.975   -32.900341 0.0015069391 
 9947000      9947000    351.93664   -17969.076    13.637732   -17955.438    3.1747793 0.0015069391 
 9947500      9947500    587.37236   -17962.935    22.760991   -17940.174    73.672717 0.0015069391 
 9948000      9948000    416.76971   -17952.647    16.150047   -17936.497    43.977085 0.0015069391 
 9948500      9948500    667.99608   -17957.588    25.885203   -17931.703    62.769738 0.0015069391 
 9949000      9949000    469.87332   -17960.789     18.20784   -17942.581   -72.338706 0.0015069391 
 9949500      9949500    627.28119   -17962.739    24.307479   -17938.431    43.908608 0.0015069391 
 9950000      9950000     721.9943   -17959.092    27.977662   -17931.114    9.4691118 0.0015069391 
 9950500      9950500    782.73704   -17961.661    30.331476    -17931.33   -23.549225 0.0015069391 
 9951000      9951000    421.33582   -17950.131    16.326987   -17933.804   -34.131379 0.0015069391 
 9951500      9951500    345.84797   -17956.071    13.401792   -17942.669   -28.944211 0.0015069391 
 9952000      9952000    302.83371   -17955.949    11.734967   -17944.214    22.862111 0.0015069391 
 9952500      9952500    167.78584   -17965.664    6.5017905   -17959.162    18.135152 0.0015069391 
 9953000      9953000    496.00714   -17965.109     19.22054   -17945.888    34.108624 0.0015069391 
 9953500      9953500    522.38011    -17963.24    20.242506   -17942.997    69.991818 0.0015069391 
 9954000      9954000    368.40592    -17952.37    14.275925   -17938.094    24.138221 0.0015069391 
 9954500      9954500    569.88211   -17949.823    22.083234    -17927.74    7.8974491 0.0015069391 
 9955000      9955000    466.74732   -17957.723    18.086706   -17939.636   -72.060758 0.0015069391 
 9955500      9955500    656.47158   -17966.733    25.438622   -17941.295    31.093308 0.0015069391 
 9956000      9956000    342.36296   -17959.653    13.266746   -17946.386   -33.870342 0.0015069391 
 9956500      9956500    470.91285   -17957.528    18.248123    -17939.28    34.254853 0.0015069391 
 9957000      9957000    511.87792    -17959.86    19.835541   -17940.025    39.440005 0.0015069391 
 9957500      9957500     283.3637   -17959.626    10.980494   -17948.645   -5.3607501 0.0015069391 
 9958000      9958000    380.86745   -17965.066    14.758816   -17950.308    36.459387 0.0015069391 
 9958500      9958500    539.99569   -17959.655    20.925119    -17938.73   -35.263569 0.0015069391 
 9959000      9959000    612.25421   -17965.272    23.725175   -17941.547    18.636155 0.0015069391 
 9959500      9959500    586.61401   -17968.927    22.731604   -17946.196    5.0008743 0.0015069391 
 9960000      9960000    788.44458   -17964.756    30.552646   -17934.204    59.354986 0.0015069391 
 9960500      9960500    617.96274   -17954.646    23.946384   -17930.699    21.880089 0.0015069391 
 9961000      9961000    737.54887   -17961.949     28.58041   -17933.369    18.134906 0.0015069391 
 9961500      9961500    487.12943   -17962.507    18.876524   -17943.631    9.1964467 0.0015069391 
 9962000      9962000    407.46636   -17961.645    15.789538   -17945.855    40.495948 0.0015069391 
 9962500      9962500    395.33505   -17964.701    15.319443   -17949.382   -14.584654 0.0015069391 
 9963000      9963000    354.17116    -17966.87     13.72432   -17953.146    4.8466127 0.0015069391 
 9963500      9963500    548.79627    -17959.31    21.266147   -17938.044    23.163029 0.0015069391 
 9964000      9964000    585.23994   -17956.446    22.678358   -17933.768   -12.161579 0.0015069391 
 9964500      9964500    587.16566    -17963.99    22.752981   -17941.237    39.009999 0.0015069391 
 9965000      9965000    374.00951   -17955.746    14.493067   -17941.253    15.209261 0.0015069391 
 9965500      9965500    588.41269   -17956.819    22.801304   -17934.018   -81.085388 0.0015069391 
 9966000      9966000    688.69306   -17956.101    26.687221   -17929.414     38.34914 0.0015069391 
 9966500      9966500    519.18534   -17960.294    20.118708   -17940.175    39.141058 0.0015069391 
 9967000      9967000    327.44887    -17954.44    12.688817   -17941.752    56.071873 0.0015069391 
 9967500      9967500    504.14252   -17953.102     19.53579   -17933.566    98.426114 0.0015069391 
 9968000      9968000    518.20383    -17952.17    20.080673   -17932.089    80.387199 0.0015069391 
 9968500      9968500    537.77765   -17956.029    20.839169    -17935.19    30.355406 0.0015069391 
 9969000      9969000    606.54484   -17966.956    23.503935   -17943.452    17.591739 0.0015069391 
 9969500      9969500    481.58324   -17958.047    18.661606   -17939.385    96.835049 0.0015069391 
 9970000      9970000    661.93365   -17962.908     25.65028   -17937.258   -24.765295 0.0015069391 
 9970500      9970500    477.71891   -17969.126    18.511861   -17950.614    70.297508 0.0015069391 
 9971000      9971000    245.21894   -17961.075    9.5023639   -17951.572    65.650116 0.0015069391 
 9971500      9971500    654.13848   -17961.938    25.348213    -17936.59    5.4353779 0.0015069391 
 9972000      9972000    598.86336   -17956.671    23.206273   -17933.464    41.588432 0.0015069391 
 9972500      9972500    572.64155   -17965.371    22.190164    -17943.18   -79.419205 0.0015069391 
 9973000      9973000    379.11261   -17956.576    14.690815   -17941.885   -21.302494 0.0015069391 
 9973500      9973500     334.4651   -17963.007      12.9607   -17950.046   -34.972967 0.0015069391 
 9974000      9974000    511.82308    -17965.95    19.833416   -17946.117   -15.282858 0.0015069391 
 9974500      9974500    465.36975   -17952.019    18.033325   -17933.986   -25.165058 0.0015069391 
 9975000      9975000    394.77674   -17957.951    15.297808   -17942.654    59.409532 0.0015069391 
 9975500      9975500    494.34134   -17967.825    19.155989   -17948.669     -7.58179 0.0015069391 
 9976000      9976000    318.32187   -17957.359    12.335141   -17945.024    51.750129 0.0015069391 
 9976500      9976500    584.97967   -17960.052    22.668273   -17937.384    18.025203 0.0015069391 
 9977000      9977000    662.13299   -17964.917    25.658005   -17939.259    22.797354 0.0015069391 
 9977500      9977500    585.93801   -17965.896    22.705409    -17943.19   -10.239812 0.0015069391 
 9978000      9978000    346.14867   -17955.762    13.413444   -17942.348   -9.7086351 0.0015069391 
 9978500      9978500    455.30794   -17960.523    17.643424   -17942.879   -8.1579692 0.0015069391 
 9979000      9979000    541.17609    -17958.54    20.970861   -17937.569   -23.363644 0.0015069391 
 9979500      9979500    682.88418   -17953.713    26.462124   -17927.251   -44.798839 0.0015069391 
 9980000      9980000    471.52534   -17952.919    18.271857   -17934.647    46.932634 0.0015069391 
 9980500      9980500    513.24023   -17959.525    19.888331   -17939.637    19.098268 0.0015069391 
 9981000      9981000    433.97467   -17965.094    16.816749   -17948.277   -36.009742 0.0015069391 
 9981500      9981500    439.22793   -17961.235    17.020315   -17944.215   -63.517374 0.0015069391 
 9982000      9982000    478.13097    -17960.89    18.527829   -17942.363    44.523998 0.0015069391 
 9982500      9982500     485.3551   -17953.541    18.807768   -17934.733   -52.877043 0.0015069391 
 9983000      9983000    744.83884   -17959.297      28.8629   -17930.434     2.390023 0.0015069391 
 9983500      9983500    498.28508   -17955.697    19.308811   -17936.389    42.651122 0.0015069391 
 9984000      9984000    594.54312   -17968.713    23.038861   -17945.674    25.181631 0.0015069391 
 9984500      9984500    314.24261   -17960.251    12.177068   -17948.074     -44.7423 0.0015069391 
 9985000      9985000    386.85238   -17964.134    14.990735   -17949.144   -26.382562 0.0015069391 
 9985500      9985500    567.68922   -17961.033    21.998259   -17939.035   -3.6395942 0.0015069391 
 9986000      9986000    479.07552   -17963.324    18.564431   -17944.759   -95.882692 0.0015069391 
 9986500      9986500    498.17062   -17969.212    19.304376   -17949.908    35.537042 0.0015069391 
 9987000      9987000    481.10771   -17961.627    18.643179   -17942.984   -10.601927 0.0015069391 
 9987500      9987500    611.50372   -17961.438    23.696094   -17937.742    42.035235 0.0015069391 
 9988000      9988000    373.18651    -17961.95    14.461175   -17947.489   -39.442928 0.0015069391 
 9988500      9988500    413.84211   -17966.242    16.036602   -17950.205    102.65664 0.0015069391 
 9989000      9989000    601.70128   -17964.487    23.316244   -17941.171    -92.19121 0.0015069391 
 9989500      9989500    456.23827   -17957.652    17.679475   -17939.972   -41.549406 0.0015069391 
 9990000      9990000    308.37213   -17960.279    11.949584   -17948.329    29.626655 0.0015069391 
 9990500      9990500    318.12154   -17961.419    12.327378   -17949.092   -7.2784843 0.0015069391 
 9991000      9991000     695.7074   -17962.842    26.959031   -17935.883   -25.342003 0.0015069391 
 9991500      9991500    484.33693   -17958.928    18.768313    -17940.16   -19.479549 0.0015069391 
 9992000      9992000    336.55756   -17961.681    13.041784   -17948.639   -99.310565 0.0015069391 
 9992500      9992500    620.75123   -17967.743     24.05444   -17943.689    35.934673 0.0015069391 
 9993000      9993000    568.07089   -17966.008    22.013048   -17943.995      44.5276 0.0015069391 
 9993500      9993500    391.41566   -17964.674    15.167565   -17949.507   -36.932239 0.0015069391 
 9994000      9994000     514.8226   -17962.889    19.949649    -17942.94    8.3355016 0.0015069391 
 9994500      9994500    712.59198   -17965.957    27.613317   -17938.343    24.619616 0.0015069391 
 9995000      9995000    440.67108   -17954.137    17.076238   -17937.061      65.3234 0.0015069391 
 9995500      9995500    434.92934   -17967.339    16.853743   -17950.485    39.031833 0.0015069391 
 9996000      9996000    260.86567   -17959.266    10.108683   -17949.157    16.448948 0.0015069391 
 9996500      9996500    597.19569   -17959.206     23.14165   -17936.064    33.201522 0.0015069391 
 9997000      9997000    594.46062    -17958.11    23.035664   -17935.075   -47.700753 0.0015069391 
 9997500      9997500    478.66015   -17957.393    18.548335   -17938.845   -65.245084 0.0015069391 
 9998000      9998000    378.39843   -17956.643     14.66314    -17941.98   -4.8408477 0.0015069391 
 9998500      9998500    378.96258   -17955.936    14.685001   -17941.251    75.720115 0.0015069391 
 9999000      9999000    680.90159   -17960.635    26.385298   -17934.249    14.359526 0.0015069391 
 9999500      9999500    675.29324   -17958.067    26.167971   -17931.899    55.166752 0.0015069391 
10000000     10000000    445.66889   -17959.322    17.269906   -17942.052    24.276468 0.0015069391 
Loop time of 171028 on 1 procs for 10000000 steps with 14 atoms

Performance: 5.052 ns/day, 4.751 hours/ns, 58.470 timesteps/s
99.3% CPU use with 1 MPI tasks x 1 OpenMP threads

MPI task timing breakdown:
Section |  min time  |  avg time  |  max time  |%varavg| %total
---------------------------------------------------------------
Pair    | 1.7e+05    | 1.7e+05    | 1.7e+05    |   0.0 | 99.40
Neigh   | 1.611      | 1.611      | 1.611      |   0.0 |  0.00
Comm    | 7.792      | 7.792      | 7.792      |   0.0 |  0.00
Output  | 4.9344     | 4.9344     | 4.9344     |   0.0 |  0.00
Modify  | 985.68     | 985.68     | 985.68     |   0.0 |  0.58
Other   |            | 26.28      |            |       |  0.02

Nlocal:        14.0000 ave          14 max          14 min
Histogram: 1 0 0 0 0 0 0 0 0 0
Nghost:         0.00000 ave           0 max           0 min
Histogram: 1 0 0 0 0 0 0 0 0 0
Neighs:         0.00000 ave           0 max           0 min
Histogram: 1 0 0 0 0 0 0 0 0 0
FullNghs:      182.000 ave         182 max         182 min
Histogram: 1 0 0 0 0 0 0 0 0 0

Total # of neighbors = 182
Ave neighs/atom = 13.000000
Neighbor list builds = 117267
Dangerous builds = 0

# SAfe minimized data file
#write_data butane_nvt_equil.data

Total wall time: 47:30:38
