14
 Atoms. Timestep: 0
1 -2.76281 -10.3755 8.22248
2 -3.41017 -10.6343 9.06144
2 -2.08898 -11.1511 7.87577
2 -3.41964 -10.2784 7.3168
1 -2.04587 -9.12361 8.58788
2 -1.10792 -9.4277 9.1579
2 -1.61817 -8.57887 7.68145
1 -2.94903 -8.0856 9.3719
2 -3.3479 -8.70515 10.2703
2 -3.89067 -7.78088 8.72087
1 -2.15267 -6.81675 9.81194
2 -1.86927 -6.06644 9.03458
2 -2.79302 -6.27083 10.5093
2 -1.19527 -7.0971 10.2744
14
 Atoms. Timestep: 1
1 -2.76339 -10.3757 8.22185
2 -3.40938 -10.6373 9.06103
2 -2.08799 -11.1525 7.87827
2 -3.41771 -10.2768 7.32131
1 -2.04507 -9.1227 8.58781
2 -1.11425 -9.42521 9.15604
2 -1.62146 -8.58329 7.68615
1 -2.94971 -8.08609 9.37165
2 -3.34481 -8.69783 10.2637
2 -3.88009 -7.78415 8.72819
1 -2.15267 -6.81669 9.81184
2 -1.87138 -6.07047 9.03535
2 -2.79158 -6.27082 10.51
2 -1.19711 -7.09682 10.2752
