ITEM: TIMESTEP
0
ITEM: NUMBER OF ATOMS
14
ITEM: BOX BOUNDS pp pp pp
-2.2206855000000001e+01 1.8793144999999999e+01
-1.9677098999999998e+01 2.1322901000000002e+01
-1.9241968000000000e+01 2.1758032000000000e+01
ITEM: ATOMS id type x y z fx fy fz
1 1 -6.91814 -1.65445 8.1947 2.56834 26.5939 -4.73534
2 2 -7.95025 -1.45386 8.51132 1.6449 -7.31442 -8.58909
3 2 -6.34606 -1.59553 9.09606 7.57689 6.17238 11.8449
4 2 -6.73005 -2.65272 7.87822 -7.63845 -17.6981 -8.82171
5 1 -6.39718 -0.628199 7.14653 -11.6295 -3.55735 -20.6645
6 2 -6.77429 -0.765699 6.12914 -8.20927 -12.1337 6.94342
7 2 -6.73878 0.376131 7.33245 -1.59495 7.03911 12.8779
8 1 -4.90235 -0.631691 6.97918 67.1597 1.53377 35.7915
9 2 -4.44571 -1.6513 6.74433 -23.0072 26.7522 7.58199
10 2 -4.46566 -0.343679 8.02131 -15.3179 -12.252 -47.5681
11 1 -4.34469 0.365724 5.89266 -26.4449 15.9554 -26.2429
12 2 -4.4334 1.47192 6.13358 5.50189 -31.9225 3.05095
13 2 -3.31808 0.105229 5.60148 -2.12565 5.66446 8.44001
14 2 -4.90253 0.298277 4.90463 11.516 -4.83314 30.0909
ITEM: TIMESTEP
1
ITEM: NUMBER OF ATOMS
14
ITEM: BOX BOUNDS pp pp pp
-2.2206855000000001e+01 1.8793144999999999e+01
-1.9677098999999998e+01 2.1322901000000002e+01
-1.9241968000000000e+01 2.1758032000000000e+01
ITEM: ATOMS id type x y z fx fy fz
1 1 -6.9181 -1.65399 8.19462 4.5072 23.623 -4.09629
2 2 -7.94991 -1.45538 8.50953 1.02432 -6.90763 -8.27793
3 2 -6.34449 -1.59425 9.09851 6.4583 5.94164 10.1439
4 2 -6.73163 -2.65639 7.87639 -7.79302 -14.9972 -7.93667
5 1 -6.39739 -0.628261 7.14617 -11.3706 -2.49134 -19.3331
6 2 -6.77599 -0.768217 6.13058 -8.21117 -11.8216 6.33228
7 2 -6.73911 0.377592 7.33512 -1.19059 5.81153 12.2708
8 1 -4.90118 -0.631664 6.97981 60.8865 4.16737 29.3138
9 2 -4.45048 -1.64575 6.7459 -20.654 22.3495 6.57295
10 2 -4.46884 -0.346222 8.01144 -12.2654 -10.3654 -40.5034
11 1 -4.34515 0.366002 5.8922 -23.9146 11.5874 -22.1305
12 2 -4.43226 1.46529 6.13421 5.00747 -27.517 3.7433
13 2 -3.31852 0.106405 5.60323 -1.70826 5.53433 8.08914
14 2 -4.90014 0.297274 4.91088 9.22379 -4.91472 25.8118
