ITEM: TIMESTEP
0
ITEM: NUMBER OF ATOMS
14
ITEM: BOX BOUNDS pp pp pp
-2.2206855000000001e+01 1.8793144999999999e+01
-1.9677098999999998e+01 2.1322901000000002e+01
-1.9241968000000000e+01 2.1758032000000000e+01
ITEM: ATOMS id type x y z fx fy fz
1 1 -3.12666 -3.23697 9.56397 24.6664 23.5078 29.2307
2 2 -2.0353 -3.02315 9.51205 -16.4265 0.667209 -6.26845
3 2 -3.41609 -2.6458 10.4942 -0.519331 -25.2774 -25.2666
4 2 -3.60266 -2.78517 8.68744 -0.883979 -4.99002 1.96075
5 1 -3.21096 -4.77445 9.64031 -1.57051 -42.6315 0.86786
6 2 -2.85525 -5.27004 8.73285 2.56821 14.5332 -4.42814
7 2 -2.51378 -5.22076 10.3582 -3.89175 9.87074 4.47326
8 1 -4.61134 -5.39844 9.83988 -70.271 -6.8079 3.29896
9 2 -5.33628 -4.57609 9.54714 16.4829 -25.6336 3.18911
10 2 -4.97445 -5.66325 10.8715 25.643 18.1925 -12.1195
11 1 -5.00189 -6.75736 9.07482 29.1456 -12.4883 25.2545
12 2 -4.35411 -7.66339 9.38097 -26.203 36.6694 -2.623
13 2 -6.09383 -7.05553 9.17655 29.2849 11.1834 -4.24396
14 2 -4.71254 -6.65544 8.04538 -8.02492 3.20443 -13.3255
ITEM: TIMESTEP
1
ITEM: NUMBER OF ATOMS
14
ITEM: BOX BOUNDS pp pp pp
-2.2206855000000001e+01 1.8793144999999999e+01
-1.9677098999999998e+01 2.1322901000000002e+01
-1.9241968000000000e+01 2.1758032000000000e+01
ITEM: ATOMS id type x y z fx fy fz
1 1 -3.12623 -3.23656 9.56448 23.1173 19.3771 25.1457
2 2 -2.03871 -3.02302 9.51074 -13.9537 1.2183 -6.14902
3 2 -3.4162 -2.65104 10.489 -1.60269 -22.4816 -21.1774
4 2 -3.60284 -2.78621 8.68784 -0.984974 -4.79661 1.91217
5 1 -3.21099 -4.7752 9.64033 -2.38195 -40.6906 0.626521
6 2 -2.85472 -5.26703 8.73193 2.66632 13.8951 -4.59297
7 2 -2.51459 -5.21871 10.3592 -3.49399 9.22931 4.72338
8 1 -4.61257 -5.39856 9.83994 -64.5626 -8.88736 1.38699
9 2 -5.33286 -4.58141 9.5478 13.3983 -22.2864 2.08731
10 2 -4.96913 -5.65947 10.869 23.9621 17.1149 -9.13334
11 1 -5.00138 -6.75758 9.07526 29.0855 -6.12243 21.434
12 2 -4.35955 -7.65578 9.38043 -22.4235 31.4844 -1.02974
13 2 -6.08776 -7.05321 9.17567 25.3207 9.98944 -3.70759
14 2 -4.71421 -6.65478 8.04262 -8.14696 2.95644 -11.526
