14
 Atoms. Timestep: 0
1 -6.89636 -2.10446 7.3104
2 -6.75857 -2.73474 6.36595
2 -7.61804 -1.28761 7.15011
2 -7.24029 -2.69036 8.18497
1 -5.61939 -1.386 7.77326
2 -4.70315 -2.05511 7.81011
2 -5.45416 -0.549704 7.0688
1 -5.83372 -0.834301 9.20802
2 -6.15304 -1.66378 9.85242
2 -6.71942 -0.186399 9.13398
1 -4.68766 -0.190074 9.89024
2 -4.34093 0.658388 9.22726
2 -4.98847 0.151701 10.8603
2 -3.83995 -0.972756 9.90213
14
 Atoms. Timestep: 1
1 -6.89621 -2.10455 7.3103
2 -6.75966 -2.73075 6.37229
2 -7.61844 -1.29027 7.14911
2 -7.24073 -2.69109 8.18126
1 -5.61893 -1.38608 7.77339
2 -4.7086 -2.05201 7.80849
2 -5.45287 -0.551517 7.07029
1 -5.83447 -0.834658 9.20775
2 -6.15266 -1.66307 9.85186
2 -6.71752 -0.185756 9.13552
1 -4.68664 -0.190192 9.88945
2 -4.34238 0.655024 9.23204
2 -4.98771 0.152675 10.8631
2 -3.84591 -0.965975 9.90418
