ITEM: TIMESTEP
0
ITEM: NUMBER OF ATOMS
14
ITEM: BOX BOUNDS pp pp pp
-2.2206855000000001e+01 1.8793144999999999e+01
-1.9677098999999998e+01 2.1322901000000002e+01
-1.9241968000000000e+01 2.1758032000000000e+01
ITEM: ATOMS id type x y z fx fy fz
1 1 -1.31077 -10.6222 7.73783 7.9817 -55.4804 22.3438
2 2 -2.34567 -10.9349 8.1492 40.6198 7.69119 -18.827
3 2 -0.670283 -11.5557 7.38548 -42.9254 49.9976 7.95671
4 2 -1.47387 -9.83005 6.99458 3.99918 -14.4925 -8.19159
5 1 -0.476516 -10.0054 8.88033 -38.4383 7.3414 49.4635
6 2 -0.564132 -10.5504 9.90841 12.7166 10.7207 -52.0851
7 2 0.540892 -9.84843 8.56449 10.7929 -2.55328 1.36532
8 1 -1.12426 -8.63769 9.21758 -25.0906 17.8666 25.9628
9 2 -2.1583 -8.82625 9.6909 38.1502 3.96152 -17.5479
10 2 -1.36523 -8.10601 8.28172 6.60058 3.1092 10.0307
11 1 -0.316475 -7.72334 10.2535 5.8991 -18.296 -15.6628
12 2 0.5094 -7.08054 9.83802 -23.9541 -11.9248 0.0466318
13 2 -1.01656 -7.10046 10.8683 15.7272 -10.8029 -8.99766
14 2 0.258094 -8.4415 10.872 -12.0788 12.8617 4.14265
ITEM: TIMESTEP
1
ITEM: NUMBER OF ATOMS
14
ITEM: BOX BOUNDS pp pp pp
-2.2206855000000001e+01 1.8793144999999999e+01
-1.9677098999999998e+01 2.1322901000000002e+01
-1.9241968000000000e+01 2.1758032000000000e+01
ITEM: ATOMS id type x y z fx fy fz
1 1 -1.31063 -10.6231 7.73822 8.67618 -46.0722 22.4289
2 2 -2.33724 -10.9333 8.14529 34.7559 5.90612 -16.497
3 2 -0.679192 -11.5453 7.38713 -37.6485 42.3407 5.48286
4 2 -1.47304 -9.83306 6.99288 3.85916 -14.1529 -7.90993
5 1 -0.477186 -10.0053 8.88119 -35.6401 10.697 41.6852
6 2 -0.561493 -10.5482 9.8976 11.9108 7.35052 -45.1254
7 2 0.543132 -9.84896 8.56477 8.92016 -2.69814 1.81699
8 1 -1.1247 -8.63738 9.21803 -19.1866 18.0337 24.3052
9 2 -2.15038 -8.82543 9.68726 32.4668 3.10285 -14.9523
10 2 -1.36386 -8.10536 8.2838 6.2348 3.43321 9.0217
11 1 -0.316372 -7.72366 10.2532 3.9606 -20.1941 -16.2801
12 2 0.504429 -7.08302 9.83803 -21.3044 -10.0954 -1.11846
13 2 -1.01329 -7.10271 10.8665 13.9648 -9.27089 -7.69968
14 2 0.255587 -8.43883 10.8729 -10.9697 11.6195 4.84203
