ITEM: TIMESTEP
0
ITEM: NUMBER OF ATOMS
14
ITEM: BOX BOUNDS pp pp pp
-2.2206855000000001e+01 1.8793144999999999e+01
-1.9677098999999998e+01 2.1322901000000002e+01
-1.9241968000000000e+01 2.1758032000000000e+01
ITEM: ATOMS id type x y z fx fy fz
1 1 -0.112132 -11.0996 7.28766 0.513773 -8.86361 -38.5106
2 2 0.318234 -12.1064 7.38971 1.33975 8.30694 8.32255
3 2 -0.29466 -11.0422 6.18446 0.283292 6.65296 20.6573
4 2 -1.06284 -11.0686 7.82139 -2.49602 -3.55934 -4.26837
5 1 0.765929 -9.95753 7.80066 1.26838 3.21353 51.8267
6 2 1.78156 -9.8547 7.4351 1.65161 -11.8447 -11.3282
7 2 0.309561 -9.00825 7.62551 -8.26369 11.9529 -8.28396
8 1 0.832002 -10.1077 9.36204 -9.52363 -42.4628 16.3594
9 2 1.00306 -11.2381 9.52075 -0.811419 44.0143 2.10044
10 2 -0.151915 -9.89673 9.90607 26.4769 -6.34964 -25.5972
11 1 1.91644 -9.27578 10.105 16.765 -27.7032 -8.59128
12 2 1.57482 -8.24041 9.99836 12.1588 1.2475 9.1493
13 2 1.97321 -9.63932 11.1638 -5.62353 16.2934 -16.2417
14 2 2.97436 -9.43815 9.71141 -33.7392 9.10168 4.40562
ITEM: TIMESTEP
1
ITEM: NUMBER OF ATOMS
14
ITEM: BOX BOUNDS pp pp pp
-2.2206855000000001e+01 1.8793144999999999e+01
-1.9677098999999998e+01 2.1322901000000002e+01
-1.9241968000000000e+01 2.1758032000000000e+01
ITEM: ATOMS id type x y z fx fy fz
1 1 -0.112123 -11.0998 7.28699 0.570049 -7.71681 -34.6287
2 2 0.318512 -12.1047 7.39144 1.61108 7.39013 8.07624
3 2 -0.294601 -11.0408 6.18875 -0.0958524 6.58736 17.4078
4 2 -1.06336 -11.0693 7.8205 -2.26098 -3.50732 -4.33437
5 1 0.765951 -9.95747 7.80156 0.664881 4.45304 50.015
6 2 1.7819 -9.85716 7.43275 0.948577 -11.6169 -10.7077
7 2 0.307846 -9.00577 7.62379 -7.15441 10.0314 -7.71698
8 1 0.831836 -10.1084 9.36233 -5.81112 -36.5335 13.212
9 2 1.00289 -11.229 9.52118 -0.0251471 37.5595 2.85553
10 2 -0.14642 -9.89804 9.90076 22.1157 -5.47623 -22.9336
11 1 1.91674 -9.27626 10.1048 11.7634 -25.5712 -9.37597
12 2 1.57735 -8.24016 10.0003 11.8635 1.21168 8.83277
13 2 1.97204 -9.63594 11.1605 -5.19615 15.0435 -13.5754
14 2 2.96736 -9.43626 9.71232 -28.9935 8.14528 2.8733
