ITEM: TIMESTEP
0
ITEM: NUMBER OF ATOMS
14
ITEM: BOX BOUNDS pp pp pp
-2.2206855000000001e+01 1.8793144999999999e+01
-1.9677098999999998e+01 2.1322901000000002e+01
-1.9241968000000000e+01 2.1758032000000000e+01
ITEM: ATOMS id type x y z fx fy fz
1 1 1.20301 -11.6098 5.80662 -51.9075 18.794 3.62792
2 2 0.133177 -11.3504 6.11747 33.6837 -5.51472 -13.507
3 2 1.1969 -12.6576 5.6303 1.78358 -18.8765 -1.73991
4 2 1.4223 -11.1508 4.84324 3.81227 5.90433 3.0726
5 1 2.13125 -11.2676 6.94029 56.8425 -16.2874 25.7451
6 2 1.84451 -11.8302 7.83935 -4.63197 5.96239 -4.2996
7 2 3.17609 -11.6597 6.74748 -28.416 7.15766 -1.40163
8 1 2.31977 -9.781 7.27131 -3.9902 19.0429 -25.0584
9 2 1.3256 -9.29701 7.22378 10.8732 -2.27006 3.60537
10 2 2.90854 -9.31976 6.41857 -13.7557 -11.1312 23.8099
11 1 3.00562 -9.45494 8.63257 8.70422 21.8033 -6.24548
12 2 2.21807 -9.42083 9.4712 32.4906 1.34458 -26.2224
13 2 3.82722 -10.1846 8.86365 -18.9453 12.2028 -1.6632
14 2 3.54185 -8.44201 8.44031 -26.5433 -38.132 20.2768
ITEM: TIMESTEP
1
ITEM: NUMBER OF ATOMS
14
ITEM: BOX BOUNDS pp pp pp
-2.2206855000000001e+01 1.8793144999999999e+01
-1.9677098999999998e+01 2.1322901000000002e+01
-1.9241968000000000e+01 2.1758032000000000e+01
ITEM: ATOMS id type x y z fx fy fz
1 1 1.2021 -11.6095 5.80668 -45.6118 14.8816 2.05009
2 2 0.140168 -11.3516 6.11466 28.2802 -4.23242 -11.9095
3 2 1.19727 -12.6615 5.62994 1.64682 -16.0044 -1.38002
4 2 1.42309 -11.1496 4.84388 3.64003 5.72703 3.12428
5 1 2.13224 -11.2679 6.94074 51.6621 -14.0195 24.8951
6 2 1.84355 -11.8289 7.83846 -4.59813 5.44843 -3.49179
7 2 3.1702 -11.6582 6.74719 -24.0869 5.54998 -1.95175
8 1 2.3197 -9.78067 7.27088 -4.35928 16.406 -21.0946
9 2 1.32786 -9.29748 7.22453 9.32585 -1.59364 3.38669
10 2 2.90569 -9.32207 6.42351 -11.5331 -9.30766 20.3834
11 1 3.00577 -9.45456 8.63246 6.90619 17.3829 -9.60945
12 2 2.22481 -9.42055 9.46576 28.4719 1.42592 -22.1658
13 2 3.82329 -10.182 8.86331 -16.6259 10.3412 -1.14814
14 2 3.53634 -8.44993 8.44452 -23.1179 -32.0054 18.9115
