ITEM: TIMESTEP
0
ITEM: NUMBER OF ATOMS
14
ITEM: BOX BOUNDS pp pp pp
-2.2206855000000001e+01 1.8793144999999999e+01
-1.9677098999999998e+01 2.1322901000000002e+01
-1.9241968000000000e+01 2.1758032000000000e+01
ITEM: ATOMS id type x y z fx fy fz
1 1 0.818007 -10.8969 7.60411 4.44035 -17.2306 17.2544
2 2 1.9095 -11.0569 7.41173 -21.6069 -3.49926 -4.01776
3 2 0.242223 -10.9895 6.6447 10.33 0.978527 19.5883
4 2 0.509319 -11.7018 8.35627 5.28453 24.9026 -26.7364
5 1 0.734925 -9.48321 8.23137 -11.4938 25.5295 -39.9168
6 2 1.06071 -8.7951 7.38403 -8.47878 -13.0596 30.4707
7 2 -0.290793 -9.15974 8.52091 11.7724 -11.0604 -6.70583
8 1 1.64615 -9.36849 9.43158 0.491628 -45.1947 26.3809
9 2 2.65022 -9.62983 9.1485 12.4682 11.2052 -5.69017
10 2 1.44376 -10.2969 10.0534 -1.72959 32.3616 -7.77237
11 1 1.57025 -8.08929 10.2868 3.13943 32.3886 -6.59225
12 2 0.549363 -7.89415 10.6874 13.951 -2.20397 -8.09889
13 2 2.22863 -8.20405 11.1324 0.742866 -5.28012 9.50699
14 2 2.00553 -7.14187 9.8286 -19.3114 -29.8374 2.32919
ITEM: TIMESTEP
1
ITEM: NUMBER OF ATOMS
14
ITEM: BOX BOUNDS pp pp pp
-2.2206855000000001e+01 1.8793144999999999e+01
-1.9677098999999998e+01 2.1322901000000002e+01
-1.9241968000000000e+01 2.1758032000000000e+01
ITEM: ATOMS id type x y z fx fy fz
1 1 0.818084 -10.8972 7.60441 4.47551 -12.613 16.1787
2 2 1.90502 -11.0576 7.4109 -18.8014 -3.85037 -4.29061
3 2 0.244367 -10.9893 6.64876 8.78562 0.735536 17.0994
4 2 0.510416 -11.6966 8.35072 3.92706 21.1397 -23.0833
5 1 0.734725 -9.48277 8.23067 -10.3516 21.255 -35.9934
6 2 1.05895 -8.79781 7.39036 -7.09558 -10.0508 26.5377
7 2 -0.28835 -9.16203 8.51952 9.68502 -10.2486 -6.11639
8 1 1.64616 -9.36928 9.43204 2.19285 -40.3425 23.2911
9 2 2.6528 -9.6275 9.14732 11.0034 11.0958 -5.21283
10 2 1.44341 -10.2902 10.0518 -2.35475 28.1712 -5.34222
11 1 1.5703 -8.08873 10.2867 3.84859 26.9239 -4.73744
12 2 0.552258 -7.89461 10.6857 11.8699 -1.74521 -7.29638
13 2 2.22878 -8.20514 11.1344 0.0862171 -4.8479 8.4379
14 2 2.00152 -7.14806 9.82909 -17.2708 -25.6227 0.527702
