14
 Atoms. Timestep: 0
1 -5.94599 0.13439 7.52408
2 -5.537 0.416007 8.54407
2 -5.93507 -1.01027 7.51107
2 -6.94859 0.587075 7.39662
1 -5.02399 0.627985 6.36017
2 -5.11056 1.7344 6.1723
2 -3.98601 0.520941 6.69027
1 -5.17562 -0.144608 5.05788
2 -6.20254 0.02392 4.66494
2 -5.07869 -1.20093 5.25055
1 -4.11464 0.371541 3.98524
2 -3.06852 0.287588 4.31978
2 -4.13583 -0.370012 3.15886
2 -4.36604 1.28367 3.45381
14
 Atoms. Timestep: 1
1 -5.94563 0.134081 7.52418
2 -5.53943 0.415571 8.53823
2 -5.93719 -1.00261 7.5113
2 -6.9472 0.584428 7.39742
1 -5.02389 0.628399 6.36049
2 -5.11147 1.72953 6.17351
2 -3.98661 0.52037 6.69026
1 -5.17559 -0.144031 5.05741
2 -6.19971 0.0229256 4.66584
2 -5.07796 -1.2027 5.25036
1 -4.11492 0.37063 3.98517
2 -3.07013 0.289903 4.32017
2 -4.13605 -0.368096 3.16099
2 -4.3656 1.2858 3.4558
