ITEM: TIMESTEP
0
ITEM: NUMBER OF ATOMS
14
ITEM: BOX BOUNDS pp pp pp
-2.2206855000000001e+01 1.8793144999999999e+01
-1.9677098999999998e+01 2.1322901000000002e+01
-1.9241968000000000e+01 2.1758032000000000e+01
ITEM: ATOMS id type x y z fx fy fz
1 1 -0.838577 -1.45666 2.1558 -7.58055 -27.4615 -0.123407
2 2 -1.60392 -1.8675 1.44717 20.1043 -2.96399 12.8009
3 2 -1.10338 -1.84928 3.18301 12.2689 6.99787 -24.5857
4 2 0.200699 -1.78762 1.83888 -27.6024 11.3843 8.85537
5 1 -1.09959 0.032579 2.09049 -5.74573 39.854 -3.51421
6 2 -0.366482 0.618254 2.68599 -4.40462 -10.1189 -10.9687
7 2 -1.09793 0.417386 1.02803 8.82724 -13.5091 23.5163
8 1 -2.50213 0.386042 2.65202 -0.516566 -18.8254 4.91146
9 2 -2.56939 0.253899 3.75764 5.45613 5.0682 -16.1061
10 2 -3.19874 -0.375617 2.25947 2.39244 10.2618 1.51756
11 1 -2.97429 1.78038 2.21873 -3.19124 6.9266 -4.16131
12 2 -2.89705 1.86756 1.08823 -6.95054 1.86784 31.1988
13 2 -4.03665 1.8752 2.57489 20.9517 5.18928 -12.2858
14 2 -2.34394 2.57627 2.70122 -14.0091 -14.6711 -11.0552
ITEM: TIMESTEP
1
ITEM: NUMBER OF ATOMS
14
ITEM: BOX BOUNDS pp pp pp
-2.2206855000000001e+01 1.8793144999999999e+01
-1.9677098999999998e+01 2.1322901000000002e+01
-1.9241968000000000e+01 2.1758032000000000e+01
ITEM: ATOMS id type x y z fx fy fz
1 1 -0.838709 -1.45713 2.1558 -8.32728 -23.1322 -0.641312
2 2 -1.59975 -1.86812 1.44983 17.8764 -3.97213 10.9108
3 2 -1.10083 -1.84783 3.17791 11.2433 5.61253 -20.9459
4 2 0.19497 -1.78526 1.84072 -23.5816 10.0793 7.65519
5 1 -1.09969 0.0332738 2.09042 -6.8021 36.155 -1.09875
6 2 -0.367396 0.616154 2.68372 -3.10763 -8.86139 -9.7573
7 2 -1.09609 0.414582 1.03291 8.62287 -11.9775 19.8652
8 1 -2.50214 0.385714 2.6521 0.308939 -16.814 2.78861
9 2 -2.56826 0.254951 3.7543 5.23303 4.66278 -13.6797
10 2 -3.19825 -0.373487 2.25979 1.59821 9.13499 1.10673
11 1 -2.97435 1.7805 2.21866 -2.27503 4.00641 -2.17353
12 2 -2.89849 1.86795 1.09471 -6.5064 2.13031 26.7498
13 2 -4.0323 1.87628 2.57234 17.8675 5.35921 -11.122
14 2 -2.34685 2.57323 2.69892 -12.1501 -12.3833 -9.65774
