14
 Atoms. Timestep: 0
1 -1.52059 -1.92887 1.95466
2 -2.01147 -2.20519 0.996177
2 -2.14417 -2.3217 2.77433
2 -0.645201 -2.51527 2.0561
1 -1.15808 -0.413257 2.17251
2 -0.512315 -0.412677 3.07899
2 -0.615606 0.029385 1.26525
1 -2.44355 0.375331 2.50017
2 -2.7632 0.099797 3.59548
2 -3.22281 0.224596 1.72016
1 -2.09975 1.89495 2.61609
2 -1.82093 2.22788 1.55691
2 -3.00972 2.50326 2.99664
2 -1.19761 2.01686 3.26256
14
 Atoms. Timestep: 1
1 -1.52085 -1.92865 1.95472
2 -2.01016 -2.20289 0.99837
2 -2.14406 -2.32017 2.7729
2 -0.641117 -2.51745 2.05506
1 -1.15813 -0.413586 2.17223
2 -0.51287 -0.410977 3.07555
2 -0.618641 0.0261258 1.27171
1 -2.44347 0.37564 2.50106
2 -2.76244 0.10067 3.58336
2 -3.22166 0.224308 1.72351
1 -2.10003 1.89507 2.61565
2 -1.8229 2.22722 1.56447
2 -3.00163 2.49869 2.99378
2 -1.20126 2.01775 3.26115
