ITEM: TIMESTEP
0
ITEM: NUMBER OF ATOMS
14
ITEM: BOX BOUNDS pp pp pp
-2.2206855000000001e+01 1.8793144999999999e+01
-1.9677098999999998e+01 2.1322901000000002e+01
-1.9241968000000000e+01 2.1758032000000000e+01
ITEM: ATOMS id type x y z fx fy fz
1 1 -2.66505 -0.123023 0.086173 51.8732 14.1693 -16.2994
2 2 -1.68443 -0.391925 -0.470291 -41.4748 15.6606 16.8351
3 2 -3.22368 0.685563 -0.428269 9.88544 -12.1864 -2.24514
4 2 -3.22976 -1.03065 -0.026153 -12.1892 -6.76184 16.3819
5 1 -2.26954 0.448846 1.49627 -3.42034 -29.3651 6.13593
6 2 -3.10384 1.06038 1.83634 0.57305 1.59472 2.83768
7 2 -2.15843 -0.356949 2.29087 1.28233 19.054 -26.1091
8 1 -0.991484 1.31517 1.35724 -49.8365 0.557123 -15.3747
9 2 -1.30919 2.1427 0.679416 14.2815 -11.104 7.66991
10 2 -0.274362 0.667202 0.871361 14.1629 6.36807 -0.943138
11 1 -0.530553 1.88191 2.67156 32.3362 2.86467 35.3072
12 2 -0.016204 1.01737 3.25393 -13.3732 43.1074 -21.9895
13 2 0.124151 2.79429 2.43957 -12.1945 -35.9068 13.9979
14 2 -1.33636 2.26905 3.34187 8.09397 -8.0518 -16.2046
ITEM: TIMESTEP
1
ITEM: NUMBER OF ATOMS
14
ITEM: BOX BOUNDS pp pp pp
-2.2206855000000001e+01 1.8793144999999999e+01
-1.9677098999999998e+01 2.1322901000000002e+01
-1.9241968000000000e+01 2.1758032000000000e+01
ITEM: ATOMS id type x y z fx fy fz
1 1 -2.66415 -0.122776 0.0858888 45.2042 12.7914 -12.057
2 2 -1.69304 -0.388675 -0.466797 -35.3875 13.8113 13.518
3 2 -3.22162 0.683034 -0.428735 8.99766 -10.8575 -2.85574
4 2 -3.23229 -1.03205 -0.0227531 -10.9488 -5.14693 16.179
5 1 -2.2696 0.448334 1.49638 -3.94821 -25.4849 2.6201
6 2 -3.10372 1.06072 1.83693 0.734593 1.2789 2.73266
7 2 -2.15816 -0.352995 2.28545 1.6914 15.7048 -22.7625
8 1 -0.992353 1.31518 1.35697 -47.0013 -1.63635 -13.6093
9 2 -1.30623 2.14039 0.681008 13.2541 -9.17585 6.13203
10 2 -0.271423 0.668524 0.871165 13.0646 6.81571 -0.51262
11 1 -0.529989 1.88196 2.67217 27.4561 2.73576 30.5745
12 2 -0.0189795 1.02632 3.24937 -10.3675 37.6068 -18.3281
13 2 0.12162 2.78684 2.44247 -9.2082 -31.363 12.8321
14 2 -1.33468 2.26737 3.3385 6.45883 -7.08012 -14.463
