14
 Atoms. Timestep: 0
1 -3.69854 -4.0816 8.11436
2 -3.34142 -5.15477 8.28203
2 -2.77305 -3.51266 7.78595
2 -4.48054 -4.0724 7.31489
1 -4.34157 -3.50377 9.40456
2 -4.81943 -4.29032 10.0102
2 -3.44841 -3.10155 9.94973
1 -5.27007 -2.38609 9.12911
2 -6.18398 -2.79647 8.54889
2 -4.80143 -1.65921 8.45586
1 -5.82134 -1.56213 10.2722
2 -4.99613 -1.13658 10.825
2 -6.46132 -0.731444 9.98203
2 -6.38118 -2.04331 11.0177
14
 Atoms. Timestep: 1
1 -3.69838 -4.08196 8.11428
2 -3.34428 -5.1479 8.28093
2 -2.779 -3.51472 7.78734
2 -4.47673 -4.07314 7.31664
1 -4.34063 -3.50402 9.40481
2 -4.81881 -4.28915 10.0094
2 -3.45291 -3.10343 9.94968
1 -5.27126 -2.38591 9.12816
2 -6.17626 -2.79338 8.5534
2 -4.80108 -1.66045 8.45592
1 -5.82108 -1.56176 10.2725
2 -4.99494 -1.13558 10.8252
2 -6.46086 -0.731367 9.98006
2 -6.38397 -2.04882 11.0202
