14
 Atoms. Timestep: 0
1 -4.95419 -4.96207 9.12396
2 -5.19085 -4.66404 8.13575
2 -4.98898 -4.1653 9.86715
2 -5.65888 -5.84509 9.42892
1 -3.50674 -5.56226 9.07658
2 -3.3889 -5.96001 8.0222
2 -2.73005 -4.7906 9.10555
1 -3.28844 -6.51175 10.2726
2 -3.70547 -7.46399 9.96306
2 -3.91454 -6.15832 11.1715
1 -1.81852 -6.61076 10.6934
2 -1.42969 -5.66861 11.0748
2 -1.58161 -7.45974 11.399
2 -1.14042 -6.86411 9.87929
14
 Atoms. Timestep: 1
1 -4.95404 -4.96328 9.1245
2 -5.19319 -4.66076 8.13254
2 -4.9903 -4.16466 9.86645
2 -5.65352 -5.83553 9.42592
1 -3.50698 -5.56199 9.07619
2 -3.38848 -5.96127 8.02913
2 -2.73172 -4.78982 9.10603
1 -3.28886 -6.51151 10.2729
2 -3.70492 -7.46547 9.96394
2 -3.90965 -6.16099 11.1651
1 -1.81808 -6.61128 10.6936
2 -1.43028 -5.6685 11.076
2 -1.58463 -7.45472 11.3973
2 -1.14195 -6.8635 9.87765
