14
 Atoms. Timestep: 0
1 -6.7082 -0.955183 7.37043
2 -7.0134 -0.445766 8.31802
2 -6.31701 -1.9162 7.73311
2 -7.57812 -1.22578 6.70826
1 -5.67887 -0.099448 6.58567
2 -6.14538 0.87986 6.27837
2 -4.84064 0.119988 7.28212
1 -5.09742 -0.86231 5.34371
2 -5.97286 -1.33495 4.82944
2 -4.45459 -1.63704 5.8082
1 -4.35413 0.12215 4.4047
2 -3.60231 0.624708 5.01104
2 -3.75415 -0.389815 3.63657
2 -5.08331 0.806407 3.94366
14
 Atoms. Timestep: 1
1 -6.70843 -0.955255 7.37047
2 -7.01385 -0.446685 8.3137
2 -6.31604 -1.91495 7.7316
2 -7.57516 -1.22355 6.7121
1 -5.6788 -0.0993882 6.5856
2 -6.14328 0.87534 6.27979
2 -4.84286 0.120436 7.27994
1 -5.09784 -0.862183 5.34407
2 -5.96855 -1.33405 4.83028
2 -4.45524 -1.63608 5.80465
1 -4.35406 0.121794 4.40482
2 -3.60302 0.626887 5.01053
2 -3.75644 -0.389593 3.63682
2 -5.08114 0.806535 3.94405
