ITEM: TIMESTEP
0
ITEM: NUMBER OF ATOMS
14
ITEM: BOX BOUNDS pp pp pp
-2.2206855000000001e+01 1.8793144999999999e+01
-1.9677098999999998e+01 2.1322901000000002e+01
-1.9241968000000000e+01 2.1758032000000000e+01
ITEM: ATOMS id type x y z fx fy fz
1 1 -6.91351 -1.90365 7.17445 27.948 6.89789 0.730313
2 2 -6.50413 -2.20696 6.19225 -5.41554 -10.7647 13.4513
3 2 -7.46432 -0.991988 6.86514 -10.4267 -16.0275 17.1891
4 2 -7.40074 -2.74432 7.73083 -9.55061 18.6558 -20.322
5 1 -5.72485 -1.50323 8.07931 20.0172 -12.0654 -15.4153
6 2 -5.08295 -2.38716 8.28399 -11.9404 9.53594 1.93406
7 2 -5.06964 -0.860653 7.49297 -0.76137 2.2849 -0.554426
8 1 -6.09096 -0.750395 9.35019 -30.165 21.7407 34.1491
9 2 -6.8019 -1.35094 10.0078 20.2805 14.1247 -22.6863
10 2 -6.68193 0.167749 9.0667 14.9943 -20.0005 5.23352
11 1 -4.88269 -0.31065 10.26 -25.52 -53.1674 -12.8435
12 2 -4.01821 0.020505 9.69622 0.970215 12.4431 0.502112
13 2 -5.24742 0.339948 11.0461 7.61419 10.2399 1.2731
14 2 -4.57881 -1.26049 10.7509 1.95525 16.1025 -2.64119
ITEM: TIMESTEP
1
ITEM: NUMBER OF ATOMS
14
ITEM: BOX BOUNDS pp pp pp
-2.2206855000000001e+01 1.8793144999999999e+01
-1.9677098999999998e+01 2.1322901000000002e+01
-1.9241968000000000e+01 2.1758032000000000e+01
ITEM: ATOMS id type x y z fx fy fz
1 1 -6.91302 -1.90353 7.17447 28.0404 7.32528 1.43676
2 2 -6.50525 -2.2092 6.19504 -4.85295 -10.735 11.8715
3 2 -7.46648 -0.995314 6.8687 -10.6244 -14.5145 16.2615
4 2 -7.40272 -2.74045 7.72661 -10.0919 16.6608 -18.7432
5 1 -5.7245 -1.50344 8.07905 18.4258 -9.87973 -14.9502
6 2 -5.08543 -2.38518 8.28439 -10.5718 7.82182 2.2081
7 2 -5.0698 -0.860179 7.49286 -0.661487 2.16421 -0.554463
8 1 -6.09148 -0.750016 9.35078 -24.9126 20.4459 31.1785
9 2 -6.79769 -1.348 10.003 17.1109 11.6575 -19.6997
10 2 -6.67882 0.163598 9.06779 12.9014 -16.8291 4.39983
11 1 -4.88314 -0.311577 10.2598 -25.0372 -49.163 -13.0315
12 2 -4.01801 0.0230874 9.69632 0.143318 11.757 0.754676
13 2 -5.24584 0.342073 11.0464 7.60853 9.32786 0.562685
14 2 -4.5784 -1.25715 10.7503 2.52187 13.9608 -1.69456
