ITEM: TIMESTEP
0
ITEM: NUMBER OF ATOMS
22
ITEM: BOX BOUNDS pp pp pp
-5.0000000000000000e+01 5.0000000000000000e+01
-5.0000000000000000e+01 5.0000000000000000e+01
-5.0000000000000000e+01 5.0000000000000000e+01
ITEM: ATOMS id type x y z fx fy fz
1 1 7.08608 5.71047 -2.49045 37.602 19.5824 -19.6857
2 2 6.3254 5.32078 -1.81399 -10.1654 27.5615 38.8541
3 1 6.73673 4.56307 -1.14707 -1.1301 -26.1498 0.321702
4 1 5.47331 5.166 -2.47587 -37.8286 -36.425 -25.4852
5 3 5.77135 6.3857 -0.925568 -40.0019 -110.808 65.262
6 4 6.13863 7.45484 -1.01001 30.5285 93.9543 -21.4404
7 5 4.94456 6.12511 0.141649 -52.6665 114.775 38.7133
8 6 4.65558 7.03995 0.457341 39.6895 -108.497 -31.7979
9 2 4.13729 5.05205 0.911448 -1.85362 35.7044 -59.2148
10 7 4.54672 4.87933 1.90675 11.2674 0.107811 11.3844
11 2 2.72569 5.70083 1.09086 -37.6383 -111.972 88.8365
12 1 2.20717 5.06182 1.80564 54.3929 101.837 -75.8433
13 1 2.71506 6.77683 1.26469 5.50977 14.126 16.2399
14 1 2.20797 5.56441 0.141409 -14.9704 2.15873 -21.7682
15 3 3.87039 3.67101 0.249529 30.7149 2.06871 -9.85864
16 4 4.66863 3.13075 -0.522505 6.45274 26.0364 -0.315672
17 5 2.79743 3.01671 0.665549 -19.1468 21.7687 118.736
18 6 2.44952 3.34978 1.55331 23.4516 -35.9785 -99.1577
19 2 2.63697 1.62535 0.349692 165.904 -11.6551 -26.8898
20 7 3.26151 1.46973 -0.529987 -59.0686 -13.5572 68.2098
21 7 2.88528 0.961812 1.17804 0.428093 18.5626 -19.9942
22 7 1.58576 1.47705 0.102567 -131.471 -23.201 -35.1065
ITEM: TIMESTEP
1
ITEM: NUMBER OF ATOMS
22
ITEM: BOX BOUNDS pp pp pp
-5.0000000000000000e+01 5.0000000000000000e+01
-5.0000000000000000e+01 5.0000000000000000e+01
-5.0000000000000000e+01 5.0000000000000000e+01
ITEM: ATOMS id type x y z fx fy fz
1 1 7.06962 5.71088 -2.50593 7.18569 3.39304 10.648
2 2 6.3245 5.3244 -1.81057 -10.6464 5.31361 -15.5178
3 1 6.71939 4.53582 -1.17001 -6.92829 -4.81489 -12.1894
4 1 5.48199 5.1424 -2.47776 1.52024 -24.5462 6.77743
5 3 5.77165 6.37964 -0.928984 -43.0275 -99.4797 71.5917
6 4 6.14127 7.45157 -1.01592 29.2323 90.1918 -21.0741
7 5 4.94012 6.12444 0.139297 -16.7698 6.27932 -1.74908
8 6 4.64261 7.03267 0.465964 7.20651 1.36727 3.31495
9 2 4.13893 5.05556 0.907561 4.86697 21.2001 -38.6376
10 7 4.5736 4.86826 1.88944 1.4784 5.42534 -5.55653
11 2 2.72953 5.69744 1.09707 8.36155 -11.0391 -14.484
12 1 2.20142 5.06985 1.81493 -6.24928 20.8455 11.2361
13 1 2.7375 6.76974 1.29251 4.41896 -5.52164 11.5917
14 1 2.18547 5.57879 0.160046 0.855765 4.80862 1.10622
15 3 3.86715 3.66921 0.256479 40.8781 9.4359 -17.4519
16 4 4.66623 3.13782 -0.520107 5.84014 24.1528 -0.101946
17 5 2.80258 3.01613 0.665033 10.2063 -15.0403 29.0431
18 6 2.4521 3.35483 1.54965 -14.1776 -1.07946 -4.07644
19 2 2.63476 1.62684 0.349069 -18.9578 0.768756 -8.28447
20 7 3.26015 1.48016 -0.531543 -9.91611 -27.1336 -1.94609
21 7 2.89733 0.968048 1.17681 4.04357 2.28959 -1.49041
22 7 1.58278 1.49727 0.0948041 0.578173 -6.81681 -2.74937
