ITEM: TIMESTEP
0
ITEM: NUMBER OF ATOMS
14
ITEM: BOX BOUNDS pp pp pp
-2.2206855000000001e+01 1.8793144999999999e+01
-1.9677098999999998e+01 2.1322901000000002e+01
-1.9241968000000000e+01 2.1758032000000000e+01
ITEM: ATOMS id type x y z fx fy fz
1 1 -6.85604 -1.64225 8.11477 -57.7465 4.50341 12.9751
2 2 -7.89028 -1.25022 8.43569 35.9038 -21.442 -7.22871
3 2 -6.26781 -1.74238 9.01679 8.59557 8.61137 2.53039
4 2 -6.9998 -2.66707 7.75344 2.68174 6.30509 -6.75722
5 1 -6.4047 -0.620842 7.08046 -2.67832 37.6087 -4.96827
6 2 -7.0121 -0.737793 6.13194 22.3074 -2.31323 19.9509
7 2 -6.79878 0.381046 7.48244 24.161 -29.9949 -15.03
8 1 -4.82493 -0.63241 6.87646 -34.0638 -9.01027 -31.8958
9 2 -4.58758 -1.68919 6.60351 5.05795 18.841 4.66021
10 2 -4.31859 -0.373248 7.79892 1.92586 -2.92387 5.30127
11 1 -4.35037 0.357642 5.74935 -43.3289 -2.41872 0.900005
12 2 -4.70056 1.36933 6.11287 17.8477 -19.0896 -14.865
13 2 -3.26521 0.27483 5.6701 -0.34842 7.69756 -3.75235
14 2 -4.84719 0.169343 4.72564 19.6849 3.62538 38.1795
ITEM: TIMESTEP
1
ITEM: NUMBER OF ATOMS
14
ITEM: BOX BOUNDS pp pp pp
-2.2206855000000001e+01 1.8793144999999999e+01
-1.9677098999999998e+01 2.1322901000000002e+01
-1.9241968000000000e+01 2.1758032000000000e+01
ITEM: ATOMS id type x y z fx fy fz
1 1 -6.85704 -1.64217 8.11499 -50.6636 3.31323 11.7292
2 2 -7.88283 -1.25467 8.43419 30.0291 -19.1994 -5.45175
3 2 -6.26602 -1.74059 9.01731 7.81698 8.42251 1.67161
4 2 -6.99924 -2.66576 7.75204 2.59737 5.71445 -6.68466
5 1 -6.40475 -0.620186 7.08037 1.2826 32.2823 -3.51649
6 2 -7.00747 -0.738273 6.13608 19.9683 -2.51452 16.6757
7 2 -6.79377 0.374821 7.47932 21.9109 -24.831 -13.0512
8 1 -4.82552 -0.632567 6.8759 -33.5344 -6.35601 -29.785
9 2 -4.58653 -1.68528 6.60448 5.32467 16.3307 3.92154
10 2 -4.31819 -0.373855 7.80002 1.3399 -3.04605 4.24268
11 1 -4.35112 0.3576 5.74937 -38.4414 -4.58283 4.80021
12 2 -4.69685 1.36537 6.10979 16.2873 -15.6737 -13.5394
13 2 -3.26529 0.276428 5.66932 -0.793328 7.45762 -3.65418
14 2 -4.8431 0.170095 4.73357 16.8756 2.68271 32.6418
