ITEM: TIMESTEP
0
ITEM: NUMBER OF ATOMS
22
ITEM: BOX BOUNDS pp pp pp
-5.0000000000000000e+01 5.0000000000000000e+01
-5.0000000000000000e+01 5.0000000000000000e+01
-5.0000000000000000e+01 5.0000000000000000e+01
ITEM: ATOMS id type x y z fx fy fz
1 1 4.72753 8.53088 -1.53915 16.8805 -39.4897 -6.76124
2 2 5.34692 7.63749 -1.45978 -110.555 -47.0677 -111.786
3 1 6.29248 7.99939 -1.05599 121.113 39.2711 60.3678
4 1 5.58392 7.0971 -2.37624 -16.264 43.4469 34.866
5 3 4.6901 6.5805 -0.633686 12.1584 81.566 -9.17337
6 4 3.55192 6.88994 -0.356425 -19.5886 -52.9449 23.1176
7 5 5.55053 5.65384 -0.289452 -79.9874 -99.4615 47.3184
8 6 6.46642 5.81853 -0.682034 79.3151 18.1265 -32.7503
9 2 5.47365 4.24519 0.329609 16.5196 12.3842 -25.0334
10 7 6.04319 4.34472 1.25363 9.22828 -7.81535 11.6941
11 2 6.1776 3.20231 -0.651827 20.1335 83.9428 44.5421
12 1 5.55207 3.23965 -1.54369 1.52847 -7.37303 -22.0144
13 1 7.18265 3.60429 -0.77985 -38.0614 -30.4063 -2.82005
14 1 6.10304 2.23489 -0.155206 11.0927 -13.7826 -1.89996
15 3 4.15726 3.57363 0.730621 -29.6355 14.92 -36.0631
16 4 4.08464 2.76488 1.67592 3.63992 18.7314 -9.16611
17 5 3.13982 3.79452 -0.158614 12.2128 -48.0814 91.3083
18 6 3.26693 4.33056 -1.00514 9.36092 27.8029 -27.8987
19 2 1.89981 3.07048 0.033283 26.1471 71.3494 -58.2345
20 7 1.11154 3.59326 0.574966 -36.5803 34.9687 42.3125
21 7 1.54337 3.13133 -0.994991 -25.0835 -9.18575 -39.0913
22 7 1.94019 2.01012 0.28248 16.4256 -90.9018 27.1652
ITEM: TIMESTEP
1
ITEM: NUMBER OF ATOMS
22
ITEM: BOX BOUNDS pp pp pp
-5.0000000000000000e+01 5.0000000000000000e+01
-5.0000000000000000e+01 5.0000000000000000e+01
-5.0000000000000000e+01 5.0000000000000000e+01
ITEM: ATOMS id type x y z fx fy fz
1 1 4.70676 8.51904 -1.55195 -1.97245 -6.76113 -9.14404
2 2 5.34427 7.63981 -1.45898 23.2036 -9.21833 -12.1778
3 1 6.30051 7.98572 -1.06647 -2.5722 -3.89557 9.91372
4 1 5.59708 7.09008 -2.36561 -6.14763 16.4054 -12.8754
5 3 4.69131 6.57779 -0.638399 8.61485 81.1136 -7.3158
6 4 3.5539 6.88475 -0.361757 -21.3954 -52.8324 23.042
7 5 5.54568 5.64997 -0.291675 6.01938 -76.9938 9.53457
8 6 6.46167 5.83753 -0.67361 -1.66622 0.223207 2.92606
9 2 5.47561 4.24829 0.326318 23.851 5.13681 -7.34844
10 7 6.06964 4.33201 1.23638 -1.9486 -6.65336 -0.177461
11 2 6.18245 3.20233 -0.646387 -37.7737 52.9487 43.5158
12 1 5.53534 3.22501 -1.52322 16.3394 -6.402 -8.89522
13 1 7.19605 3.58796 -0.755988 0.272693 -13.3727 -10.7086
14 1 6.08595 2.24596 -0.132445 14.0346 -2.31465 -8.83025
15 3 4.15297 3.57206 0.737115 -19.1827 25.6451 -45.73
16 4 4.0822 2.77185 1.6782 2.24296 12.0659 -1.78527
17 5 3.14544 3.7929 -0.15954 7.83415 -24.9639 54.587
18 6 3.26659 4.34885 -0.994009 4.58159 3.2212 9.71327
19 2 1.89516 3.07341 0.0321136 -17.8593 11.8045 -43.413
20 7 1.11484 3.61377 0.568035 9.35082 0.736398 10.4647
21 7 1.55012 3.13181 -1.00018 -12.8075 -12.4246 -0.309206
22 7 1.9679 2.01628 0.28764 6.98061 6.53161 5.01352
