14
 Atoms. Timestep: 0
1 1.8255 -11.6532 5.22284
2 1.41041 -11.1112 6.11477
2 1.39867 -12.6264 5.26683
2 1.55582 -11.062 4.33634
1 3.38658 -11.6006 5.34237
2 3.60598 -12.4631 5.99022
2 3.98731 -11.7989 4.41225
1 3.8689 -10.3064 6.04469
2 3.15118 -10.0521 6.86777
2 4.07487 -9.38962 5.44001
1 5.22786 -10.5599 6.71978
2 5.08482 -11.1686 7.70946
2 5.84706 -11.1169 5.97719
2 5.81225 -9.67286 7.04719
14
 Atoms. Timestep: 1
1 1.82595 -11.6523 5.22311
2 1.41105 -11.1138 6.11073
2 1.39771 -12.6302 5.26483
2 1.55431 -11.064 4.33697
1 3.3865 -11.6008 5.34229
2 3.60667 -12.4615 5.98974
2 3.98312 -11.7979 4.41518
1 3.86909 -10.3061 6.04517
2 3.15396 -10.0519 6.86418
2 4.07121 -9.39373 5.43953
1 5.228 -10.5604 6.72045
2 5.08635 -11.1641 7.69904
2 5.84633 -11.1155 5.98089
2 5.80938 -9.67395 7.04509
