22
 Atoms. Timestep: 0
1 7.89968 2.92767 -0.511893
2 6.96243 2.62387 -0.978122
1 6.8813 1.55101 -0.803528
1 6.69386 2.83477 -2.01325
3 5.81108 3.17191 -0.125706
4 5.79838 2.78532 1.0405
5 4.94684 4.05163 -0.723442
6 5.20531 4.3126 -1.66429
2 3.56399 4.40316 -0.391952
7 3.03135 4.19157 -1.31911
2 3.00816 3.72459 0.854094
1 3.74995 3.85941 1.64129
1 1.98729 4.08817 0.97131
1 3.05264 2.64905 0.682819
3 3.17536 5.85937 -0.313229
4 2.23131 6.29595 -0.988607
5 4.12842 6.49913 0.251628
6 4.76415 5.96839 0.829781
2 4.22303 7.90235 0.39764
7 3.27462 8.36152 0.118749
7 4.43237 8.15205 1.4378
7 5.18089 8.25926 0.0191943
22
 Atoms. Timestep: 1
1 7.89824 2.93329 -0.515753
2 6.95912 2.62455 -0.974915
1 6.86669 1.54801 -0.831379
1 6.71285 2.8211 -2.01838
3 5.81229 3.16796 -0.130386
4 5.80045 2.78092 1.03479
5 4.94333 4.04862 -0.725197
6 5.18834 4.33193 -1.66318
2 3.56492 4.40597 -0.395472
7 3.05662 4.17661 -1.33202
2 3.01407 3.72377 0.858318
1 3.72998 3.84953 1.67057
1 1.99462 4.08221 1.00095
1 3.03154 2.64505 0.702852
3 3.17162 5.85694 -0.306923
4 2.22894 6.30282 -0.985951
5 4.13419 6.49876 0.249913
6 4.7627 5.97897 0.845638
2 4.22073 7.90527 0.397554
7 3.28479 8.37838 0.100445
7 4.44037 8.15206 1.43628
7 5.1757 8.27547 0.0246168
