ITEM: TIMESTEP
0
ITEM: NUMBER OF ATOMS
14
ITEM: BOX BOUNDS pp pp pp
-2.2206855000000001e+01 1.8793144999999999e+01
-1.9677098999999998e+01 2.1322901000000002e+01
-1.9241968000000000e+01 2.1758032000000000e+01
ITEM: ATOMS id type x y z fx fy fz
1 1 -3.94863 -4.68016 9.1345 -25.8614 -8.4569 -50.4904
2 2 -3.1198 -5.12003 9.6661 8.60699 -10.8787 -6.15036
3 2 -3.70314 -4.4702 7.98836 -9.7502 -15.8569 65.9918
4 2 -4.84547 -5.42572 9.20473 38.334 36.8404 -3.10007
5 1 -4.1674 -3.35162 9.8766 -20.8186 25.7176 28.105
6 2 -4.62832 -3.46669 10.8947 21.1323 -14.8575 -16.5358
7 2 -3.23169 -2.74938 10.032 -16.0209 -15.0099 -6.68614
8 1 -5.25716 -2.48357 9.23102 1.55133 -24.7839 -25.8083
9 2 -6.03332 -3.19951 8.82116 12.8154 24.6983 11.1814
10 2 -4.78504 -1.99816 8.35834 -8.28981 0.792849 7.97745
11 1 -5.8412 -1.47484 10.2332 -65.5969 -4.99364 11.829
12 2 -5.11848 -1.033 10.8481 24.9949 12.1731 12.6417
13 2 -6.42647 -0.637893 9.78955 11.5723 -14.3583 -2.51674
14 2 -6.58633 -1.94728 10.9657 27.3305 8.9734 -26.4386
ITEM: TIMESTEP
1
ITEM: NUMBER OF ATOMS
14
ITEM: BOX BOUNDS pp pp pp
-2.2206855000000001e+01 1.8793144999999999e+01
-1.9677098999999998e+01 2.1322901000000002e+01
-1.9241968000000000e+01 2.1758032000000000e+01
ITEM: ATOMS id type x y z fx fy fz
1 1 -3.94908 -4.68031 9.13362 -20.5472 -5.52988 -40.1164
2 2 -3.11802 -5.12229 9.66482 7.26191 -10.1244 -6.76405
3 2 -3.70516 -4.47349 8.00205 -7.89858 -14.0353 56.1924
4 2 -4.83751 -5.41807 9.20409 32.3886 31.8558 -2.79866
5 1 -4.16776 -3.35117 9.87709 -21.3881 22.9425 23.9159
6 2 -4.62393 -3.46978 10.8913 19.4946 -14.6889 -13.5056
7 2 -3.23502 -2.7525 10.0307 -13.5122 -13.1773 -6.14755
8 1 -5.25713 -2.48401 9.23057 3.01904 -21.6946 -22.2631
9 2 -6.03066 -3.19439 8.82348 10.1028 21.812 9.53
10 2 -4.78676 -1.998 8.35999 -7.58812 1.26049 6.77756
11 1 -5.84235 -1.47493 10.2335 -56.2411 -3.19749 10.925
12 2 -5.1133 -1.03048 10.8507 21.5504 10.2736 10.0451
13 2 -6.42407 -0.640873 9.78903 10.0541 -12.4457 -3.24652
14 2 -6.58066 -1.94541 10.9602 23.3038 6.74925 -22.5442
