ITEM: TIMESTEP
0
ITEM: NUMBER OF ATOMS
22
ITEM: BOX BOUNDS pp pp pp
-5.0000000000000000e+01 5.0000000000000000e+01
-5.0000000000000000e+01 5.0000000000000000e+01
-5.0000000000000000e+01 5.0000000000000000e+01
ITEM: ATOMS id type x y z fx fy fz
1 1 3.58571 1.56641 0.276563 47.0453 37.1191 86.0262
2 2 4.02364 1.92893 1.20656 -47.5896 -16.9886 -116.173
3 1 4.86833 1.3183 1.52553 22.4868 -4.95501 6.66769
4 1 3.22907 1.89465 1.95194 -34.36 -20.1847 35.8205
5 3 4.25249 3.41533 1.16731 -1.18055 -13.5046 -5.58471
6 4 3.49796 4.15163 1.82289 17.8345 3.39498 -16.0732
7 5 5.22106 3.80087 0.334453 -77.1001 144.751 65.5971
8 6 5.87542 3.10605 0.00407223 82.4154 -86.7501 -49.8419
9 2 5.47934 5.28545 0.088874 46.4121 -92.6631 -96.6395
10 7 5.25121 5.92027 0.945064 -32.1976 51.0609 98.2325
11 2 7.01275 5.57603 -0.0866228 28.0299 -61.9324 176.903
12 1 7.16494 6.63549 0.119515 1.41201 46.4381 7.8527
13 1 7.69713 5.10131 0.61649 -89.0079 40.8207 -67.1877
14 1 7.50446 5.45698 -1.0521 33.9579 -24.9915 -122.172
15 3 4.49777 5.80095 -0.982633 9.1941 13.4313 -42.6532
16 4 4.82008 6.20998 -2.11184 14.1084 -10.3837 19.7028
17 5 3.22168 5.68135 -0.698143 -48.4084 -21.4118 89.2704
18 6 2.99868 5.51766 0.273236 23.1493 7.46773 -76.7344
19 2 2.06986 5.55948 -1.60623 69.1386 108.242 -7.87895
20 7 1.28395 6.18713 -1.18611 -39.4452 29.2169 18.1395
21 7 2.17091 5.85879 -2.64945 20.4572 7.94773 -4.51171
22 7 1.68659 4.53946 -1.63368 -46.3524 -136.125 1.23771
ITEM: TIMESTEP
1
ITEM: NUMBER OF ATOMS
22
ITEM: BOX BOUNDS pp pp pp
-5.0000000000000000e+01 5.0000000000000000e+01
-5.0000000000000000e+01 5.0000000000000000e+01
-5.0000000000000000e+01 5.0000000000000000e+01
ITEM: ATOMS id type x y z fx fy fz
1 1 3.57121 1.57046 0.283023 4.45129 3.4517 -3.3183
2 2 4.02209 1.93177 1.20728 -24.2151 -9.33899 12.7236
3 1 4.85589 1.29545 1.5039 5.12383 12.2557 -0.325907
4 1 3.23848 1.87442 1.96277 2.08113 -14.9617 1.29647
5 3 4.25347 3.41096 1.16266 -3.8082 -8.84407 -1.51484
6 4 3.50043 4.14717 1.81705 16.6716 3.76298 -14.9115
7 5 5.21625 3.80065 0.332503 13.758 53.7981 19.2906
8 6 5.87131 3.10329 0.00894984 -2.70767 4.52264 -7.24136
9 2 5.48182 5.28672 0.0843357 22.8733 -30.8375 2.45949
10 7 5.26906 5.91977 0.945774 -10.3531 -16.3647 6.61201
11 2 7.01774 5.57351 -0.0788773 11.4135 21.1711 -4.67053
12 1 7.14819 6.63201 0.14618 -2.05363 0.679258 -2.51489
13 1 7.69995 5.09977 0.626993 -15.2074 -10.4812 6.76195
14 1 7.49211 5.46572 -1.0543 -20.3028 -9.91769 -7.68367
15 3 4.49415 5.79935 -0.976254 20.7755 20.2196 -56.8143
16 4 4.81778 6.21657 -2.10918 11.7948 -13.0394 26.1844
17 5 3.22639 5.68013 -0.6991 -43.8625 -8.32938 14.3245
18 6 3.0012 5.53173 0.274227 5.23992 -6.506 1.56088
19 2 2.06596 5.56305 -1.60652 -8.09854 6.66302 0.234497
20 7 1.28666 6.20644 -1.19806 -2.68254 -2.58989 -1.25148
21 7 2.18712 5.86283 -2.64746 17.5039 4.08493 4.53456
22 7 1.70127 4.53624 -1.6339 1.6046 0.601499 4.26394
