22
 Atoms. Timestep: 0
1 5.7647 3.6231 -3.83469
2 6.04389 3.73701 -2.78723
1 6.80191 4.51756 -2.72209
1 6.32887 2.70702 -2.57275
3 4.7834 4.15902 -2.14658
4 3.83621 4.48425 -2.95388
5 4.79894 4.23714 -0.81165
6 5.62432 3.82309 -0.402492
2 3.63009 4.53145 -0.0603881
7 3.10122 5.20496 -0.734765
2 2.88049 3.27878 0.190033
1 3.18179 2.77439 1.10814
1 1.84378 3.55058 0.388692
1 2.74343 2.67192 -0.704974
3 3.86941 5.42475 1.23737
4 3.33822 6.54421 1.4649
5 5.06341 5.15116 1.83369
6 5.33298 4.19676 1.6425
2 5.60952 5.8351 3.08006
7 5.29247 6.87718 3.12073
7 5.22417 5.3513 3.97758
7 6.68286 5.67507 2.97797
22
 Atoms. Timestep: 1
1 5.74667 3.62274 -3.8294
2 6.0417 3.73649 -2.78628
1 6.80442 4.51394 -2.74231
1 6.34132 2.71107 -2.56984
3 4.78358 4.15546 -2.15197
4 3.83894 4.47953 -2.9587
5 4.79484 4.23469 -0.815445
6 5.61312 3.83438 -0.379243
2 3.632 4.53518 -0.0623682
7 3.11823 5.19797 -0.758677
2 2.88577 3.27706 0.197005
1 3.16287 2.76663 1.11938
1 1.85227 3.54516 0.416341
1 2.72455 2.67428 -0.696731
3 3.86649 5.42346 1.24423
4 3.33567 6.55037 1.46717
5 5.06793 5.1514 1.8322
6 5.33835 4.1942 1.65687
2 5.60603 5.83658 3.07876
7 5.30684 6.88441 3.10394
7 5.23577 5.35214 3.98227
7 6.68392 5.70633 2.98239
