ITEM: TIMESTEP
0
ITEM: NUMBER OF ATOMS
14
ITEM: BOX BOUNDS pp pp pp
-2.2206855000000001e+01 1.8793144999999999e+01
-1.9677098999999998e+01 2.1322901000000002e+01
-1.9241968000000000e+01 2.1758032000000000e+01
ITEM: ATOMS id type x y z fx fy fz
1 1 -4.66128 -0.941337 6.45551 -14.7691 -8.50319 0.723848
2 2 -3.66579 -1.40553 6.66804 -17.4018 10.0813 1.21726
3 2 -5.48348 -1.66632 6.74024 24.1621 13.9781 -8.52257
4 2 -4.87689 -0.039181 7.09532 14.9034 -19.1691 -11.3155
5 1 -4.77093 -0.554511 4.94285 31.399 23.2261 12.2489
6 2 -3.83741 0.03985 4.65087 -35.0629 -11.0352 9.42048
7 2 -4.74912 -1.40052 4.24369 -1.14112 -2.66223 10.5392
8 1 -6.10262 0.195527 4.77795 -19.5416 -38.9713 -22.7293
9 2 -6.27798 1.07262 5.38813 10.3708 6.68395 3.0119
10 2 -6.81951 -0.570465 5.17641 3.95274 21.6352 -11.0957
11 1 -6.42509 0.4469 3.27081 47.0588 17.556 -8.34146
12 2 -6.83508 -0.464462 2.77017 9.95505 15.4342 5.40624
13 2 -7.14168 1.26203 3.19623 -5.77306 -3.11449 -1.91881
14 2 -5.45945 0.857517 2.74073 -48.1124 -25.1393 21.3555
ITEM: TIMESTEP
1
ITEM: NUMBER OF ATOMS
14
ITEM: BOX BOUNDS pp pp pp
-2.2206855000000001e+01 1.8793144999999999e+01
-1.9677098999999998e+01 2.1322901000000002e+01
-1.9241968000000000e+01 2.1758032000000000e+01
ITEM: ATOMS id type x y z fx fy fz
1 1 -4.66154 -0.941485 6.45552 -12.8899 -7.30047 -2.49506
2 2 -3.6694 -1.40343 6.66829 -15.0702 8.90084 1.54741
3 2 -5.47846 -1.66341 6.73847 20.9775 11.4079 -7.43589
4 2 -4.8738 -0.0431594 7.09297 13.9532 -16.4786 -9.42571
5 1 -4.77038 -0.554106 4.94306 26.2317 20.3095 13.8595
6 2 -3.84469 0.0375598 4.65283 -30.4146 -8.28686 7.99288
7 2 -4.74936 -1.40107 4.24588 -0.964481 -2.7825 10.1488
8 1 -6.10296 0.194848 4.77755 -17.1518 -35.3333 -22.863
9 2 -6.27583 1.07401 5.38875 10.3624 5.65437 2.20747
10 2 -6.81869 -0.565975 5.17411 1.97648 19.2356 -9.86119
11 1 -6.42427 0.447206 3.27067 40.0852 16.386 -3.78124
12 2 -6.83302 -0.461259 2.77129 9.14288 13.5148 4.41902
13 2 -7.14288 1.26138 3.19583 -5.31601 -3.30138 -1.8629
14 2 -5.46944 0.8523 2.74516 -40.9224 -21.9258 17.5499
