14
 Atoms. Timestep: 0
1 2.0354 -11.3637 4.96063
2 1.31677 -11.6376 5.73499
2 1.67848 -11.864 4.01372
2 1.7431 -10.2349 4.87573
1 3.4772 -11.5922 5.25981
2 3.49851 -12.4342 5.96876
2 3.98042 -11.8828 4.34755
1 4.07852 -10.2964 5.75326
2 3.4311 -9.78565 6.47231
2 4.20377 -9.69253 4.85569
1 5.59535 -10.452 6.26664
2 5.76628 -11.4496 6.82854
2 6.3153 -10.4492 5.42458
2 5.81898 -9.64866 7.00992
14
 Atoms. Timestep: 1
1 2.0342 -11.3628 4.96002
2 1.319 -11.6397 5.73612
2 1.68116 -11.8621 4.01819
2 1.7476 -10.2452 4.87491
1 3.47714 -11.5924 5.25999
2 3.50043 -12.4326 5.96836
2 3.98137 -11.8838 4.34687
1 4.07959 -10.2964 5.7534
2 3.4318 -9.78582 6.47242
2 4.20173 -9.69041 4.85647
1 5.59489 -10.4525 6.26705
2 5.76419 -11.4415 6.824
2 6.31384 -10.4484 5.4266
2 5.81924 -9.65076 7.00642
