ITEM: TIMESTEP
0
ITEM: NUMBER OF ATOMS
14
ITEM: BOX BOUNDS pp pp pp
-2.2206855000000001e+01 1.8793144999999999e+01
-1.9677098999999998e+01 2.1322901000000002e+01
-1.9241968000000000e+01 2.1758032000000000e+01
ITEM: ATOMS id type x y z fx fy fz
1 1 -2.28679 -1.74207 2.37946 -2.81412 3.29252 -20.4782
2 2 -2.6546 -1.91438 1.31068 17.7151 11.4221 30.7312
3 2 -3.20746 -1.52038 2.95365 10.2304 -13.2943 -0.796615
4 2 -1.76858 -2.68968 2.70398 -17.2717 19.5896 -3.52868
5 1 -1.32007 -0.521098 2.60857 -14.5504 -44.0144 9.4665
6 2 -1.01987 -0.689264 3.65037 10.2294 6.61659 -6.43979
7 2 -0.475268 -0.694964 1.92329 -1.55571 14.1938 6.54794
8 1 -2.02976 0.829193 2.54871 -16.211 -6.96667 -1.55982
9 2 -2.91203 0.844425 3.23314 11.5025 -2.22682 -14.0263
10 2 -2.36133 0.91049 1.51926 -7.86401 5.07218 -1.4462
11 1 -1.17986 2.03434 2.8707 94.9228 3.72874 51.3613
12 2 -0.168744 2.04769 2.30549 -45.9106 -1.1307 12.7833
13 2 -1.70093 2.95408 2.69615 -6.29285 10.5913 -4.21629
14 2 -0.772929 2.07369 3.98547 -32.1299 -6.87384 -58.3983
ITEM: TIMESTEP
1
ITEM: NUMBER OF ATOMS
14
ITEM: BOX BOUNDS pp pp pp
-2.2206855000000001e+01 1.8793144999999999e+01
-1.9677098999999998e+01 2.1322901000000002e+01
-1.9241968000000000e+01 2.1758032000000000e+01
ITEM: ATOMS id type x y z fx fy fz
1 1 -2.28683 -1.74201 2.3791 -1.51098 6.08843 -16.977
2 2 -2.65092 -1.91201 1.31706 15.8934 10.5403 25.8083
3 2 -3.20534 -1.52314 2.95349 8.91145 -12.7163 -0.216925
4 2 -1.77216 -2.68562 2.70324 -15.5103 16.702 -2.75589
5 1 -1.32032 -0.521865 2.60873 -15.0939 -42.5818 9.23807
6 2 -1.01775 -0.687891 3.64904 10.1783 6.32556 -5.72206
7 2 -0.475591 -0.692018 1.92465 -1.00089 13.7208 5.9143
8 1 -2.03004 0.829072 2.54868 -13.8538 -6.70114 -3.34108
9 2 -2.90964 0.843963 3.23023 9.48912 -2.13639 -12.3153
10 2 -2.36296 0.911543 1.51896 -7.54546 4.955 -1.0013
11 1 -1.1782 2.0344 2.87159 82.6856 4.58253 44.2951
12 2 -0.178272 2.04745 2.30815 -39.4181 -0.987168 9.67613
13 2 -1.70223 2.95627 2.69527 -4.99331 8.60438 -3.68396
14 2 -0.779597 2.07227 3.97335 -28.231 -6.39612 -48.9184
