ITEM: TIMESTEP
0
ITEM: NUMBER OF ATOMS
14
ITEM: BOX BOUNDS pp pp pp
-2.2206855000000001e+01 1.8793144999999999e+01
-1.9677098999999998e+01 2.1322901000000002e+01
-1.9241968000000000e+01 2.1758032000000000e+01
ITEM: ATOMS id type x y z fx fy fz
1 1 -6.1466 -1.19931 6.66143 5.08183 48.8884 -36.4464
2 2 -5.95535 -1.86137 5.77731 6.55906 5.78631 23.5986
3 2 -5.71898 -0.160446 6.46011 -11.4705 -33.0681 1.72733
4 2 -7.21728 -1.08968 6.66174 -9.31943 3.71963 -0.778861
5 1 -5.75077 -1.624 8.0379 -6.73814 -87.7047 15.3703
6 2 -6.29343 -2.63577 8.16607 16.5222 41.3894 1.7401
7 2 -4.71205 -2.00328 8.07466 -5.00015 17.02 -1.43944
8 1 -6.11749 -0.692279 9.205 15.3631 3.57083 -24.5097
9 2 -7.21919 -0.642303 9.28272 10.5273 -1.80285 5.78768
10 2 -5.77803 0.312585 8.86587 -3.81248 -10.6339 15.9353
11 1 -5.39391 -1.19286 10.4888 -28.8182 11.8022 37.8523
12 2 -4.29765 -1.03066 10.5403 -13.0454 1.32805 -6.81194
13 2 -5.88562 -0.623729 11.3545 22.0996 -19.4965 -25.6484
14 2 -5.57881 -2.27826 10.694 2.05117 19.2013 -6.37687
ITEM: TIMESTEP
1
ITEM: NUMBER OF ATOMS
14
ITEM: BOX BOUNDS pp pp pp
-2.2206855000000001e+01 1.8793144999999999e+01
-1.9677098999999998e+01 2.1322901000000002e+01
-1.9241968000000000e+01 2.1758032000000000e+01
ITEM: ATOMS id type x y z fx fy fz
1 1 -6.14651 -1.19846 6.66079 1.57524 44.811 -32.1758
2 2 -5.95398 -1.86017 5.78221 6.83397 4.31532 21.0627
3 2 -5.72136 -0.167309 6.46046 -9.39389 -28.0386 0.77988
4 2 -7.21922 -1.08891 6.66158 -7.96783 3.583 -0.955244
5 1 -5.75089 -1.62553 8.03817 -5.34685 -79.3411 14.01
6 2 -6.29 -2.62718 8.16643 13.4401 34.9689 2.41381
7 2 -4.71309 -1.99975 8.07436 -3.52686 16.0422 -1.38216
8 1 -6.11722 -0.692217 9.20457 15.8464 1.11204 -22.9786
9 2 -7.217 -0.642677 9.28392 9.29061 -1.67971 5.65924
10 2 -5.77882 0.310378 8.86918 -3.12619 -8.5999 14.9037
11 1 -5.39442 -1.19265 10.4894 -27.1454 11.4605 32.1311
12 2 -4.30036 -1.03038 10.5389 -11.5263 1.44709 -6.57388
13 2 -5.88103 -0.627775 11.3492 19.4476 -16.5487 -21.1661
14 2 -5.57839 -2.27427 10.6926 1.59935 16.4679 -5.72874
