ITEM: TIMESTEP
0
ITEM: NUMBER OF ATOMS
22
ITEM: BOX BOUNDS pp pp pp
-5.0000000000000000e+01 5.0000000000000000e+01
-5.0000000000000000e+01 5.0000000000000000e+01
-5.0000000000000000e+01 5.0000000000000000e+01
ITEM: ATOMS id type x y z fx fy fz
1 1 4.12083 6.36302 -3.57544 40.2517 46.7336 -7.92137
2 2 3.44538 5.63108 -3.13256 65.1854 -193.072 -103.696
3 1 3.50109 4.82289 -3.86182 -10.0247 107.613 105.529
4 1 2.41041 5.97245 -3.15249 -91.6142 34.2252 5.07966
5 3 3.8237 5.05299 -1.78633 -0.0868107 3.71175 -42.2687
6 4 2.9455 4.33799 -1.28507 22.145 16.2356 -1.49063
7 5 5.09824 5.31434 -1.39779 -89.7535 -8.06245 92.4371
8 6 5.81314 5.65277 -2.02588 36.5276 30.6015 -63.0226
9 2 5.63274 5.27458 -0.022208 -13.0761 -80.6066 17.0147
10 7 6.09659 6.22963 0.224421 13.5464 18.4164 0.870376
11 2 6.75078 4.1574 -0.29933 -33.0217 13.3591 -18.3008
12 1 6.31521 3.47816 -1.03214 9.01722 -11.2085 22.5115
13 1 7.57088 4.53212 -0.911799 6.58654 11.314 8.42689
14 1 7.12808 3.59902 0.557382 -4.7156 6.00694 8.77815
15 3 4.70889 4.91009 1.28921 49.5004 -26.6698 -53.871
16 4 5.2056 5.30517 2.35591 -34.1408 -5.32736 -0.6015
17 5 3.66954 4.00945 1.1576 43.8992 65.7328 134.785
18 6 3.48429 3.68967 0.217638 -20.213 -28.0853 -81.2311
19 2 2.74045 3.56275 2.23565 89.7715 8.4384 -20.0653
20 7 2.46748 4.39948 2.87866 -24.6626 13.1484 1.78152
21 7 2.08873 2.95471 1.60824 -63.7349 -18.8337 -12.1116
22 7 3.23908 2.82955 2.8696 8.61313 -3.67162 7.36642
ITEM: TIMESTEP
1
ITEM: NUMBER OF ATOMS
22
ITEM: BOX BOUNDS pp pp pp
-5.0000000000000000e+01 5.0000000000000000e+01
-5.0000000000000000e+01 5.0000000000000000e+01
-5.0000000000000000e+01 5.0000000000000000e+01
ITEM: ATOMS id type x y z fx fy fz
1 1 4.10491 6.36906 -3.58848 5.11573 5.77713 17.7905
2 2 3.4458 5.63086 -3.13162 -4.01906 -8.68472 -32.459
3 1 3.4819 4.8234 -3.86293 -0.391535 -5.54617 3.87321
4 1 2.40793 5.96351 -3.14804 1.32175 4.20804 7.68911
5 3 3.8247 5.04892 -1.79162 -1.42629 3.3105 -39.1858
6 4 2.94803 4.3337 -1.29072 21.3072 14.9849 -0.815724
7 5 5.09324 5.31184 -1.39934 -26.7637 20.381 42.2694
8 6 5.79951 5.67436 -2.02373 -19.734 2.89451 -13.2937
9 2 5.63418 5.27606 -0.0247666 -0.187728 -59.3439 24.5317
10 7 6.12394 6.22236 0.204924 -2.01871 -5.42574 -2.86781
11 2 6.7547 4.15619 -0.294985 -27.3231 17.465 -3.75421
12 1 6.30004 3.46272 -1.00243 7.80946 -15.0043 14.2088
13 1 7.59354 4.52445 -0.885603 -0.822852 8.17318 9.91039
14 1 7.10771 3.6142 0.582359 -5.55584 8.62666 1.60895
15 3 4.70598 4.90779 1.29539 60.5917 -17.5088 -62.2358
16 4 5.20267 5.31183 2.3583 -35.0371 -6.51669 0.699958
17 5 3.67563 4.00953 1.15732 14.0761 29.9785 51.0698
18 6 3.47781 3.69637 0.217697 -1.07943 1.9234 4.73847
19 2 2.73691 3.56458 2.23514 64.6967 -10.2372 -35.5134
20 7 2.47326 4.41546 2.86332 -20.7896 -4.93656 -10.3505
21 7 2.08746 2.95318 1.60864 -29.5383 12.2905 20.986
22 7 3.26517 2.85382 2.87065 -0.23124 3.19085 1.09972
