14
 Atoms. Timestep: 0
1 -0.884198 -11.0089 7.51056
2 -1.32422 -11.801 8.15225
2 -0.474857 -11.6542 6.71631
2 -1.78848 -10.4032 7.19594
1 0.154591 -10.2067 8.17766
2 0.788327 -10.9087 8.71665
2 0.71302 -9.61818 7.3499
1 -0.490477 -9.1672 9.14338
2 -1.19598 -9.68203 9.81668
2 -1.1288 -8.48383 8.5485
1 0.543245 -8.35821 9.93813
2 1.10503 -7.67525 9.30896
2 -0.056902 -7.6403 10.6062
2 1.25601 -8.95537 10.5594
14
 Atoms. Timestep: 1
1 -0.885166 -11.0095 7.51029
2 -1.32252 -11.7977 8.15268
2 -0.475371 -11.6511 6.71582
2 -1.78275 -10.4059 7.1957
1 0.154954 -10.2058 8.17744
2 0.790188 -10.9077 8.71639
2 0.710118 -9.62385 7.35742
1 -0.490558 -9.16741 9.14317
2 -1.1942 -9.68128 9.81637
2 -1.12706 -8.4849 8.54999
1 0.54288 -8.35772 9.93872
2 1.10606 -7.67604 9.30781
2 -0.0517963 -7.64616 10.6026
2 1.25299 -8.95388 10.5571
