22
 Atoms. Timestep: 0
1 7.21693 6.21706 -0.0521343
2 7.6222 5.61467 0.760871
1 8.08612 5.99932 1.66912
1 8.05733 4.74669 0.265518
3 6.22622 5.17799 1.18493
4 5.75157 5.5673 2.22324
5 5.55885 4.50012 0.280003
6 6.04227 4.45477 -0.605632
2 4.14201 3.96827 0.225228
7 4.42037 2.91754 0.144089
2 3.34068 4.25963 1.55779
1 2.54716 3.51912 1.45744
1 3.91311 3.84136 2.38572
1 2.92537 5.26705 1.53092
3 3.27684 4.19794 -1.059
4 2.67231 3.22394 -1.3736
5 3.18752 5.35296 -1.67696
6 3.86524 5.95911 -1.23721
2 2.26708 5.47233 -2.91062
7 1.23754 5.20106 -2.67706
7 2.20847 6.50025 -3.26846
7 2.3871 4.85155 -3.7985
22
 Atoms. Timestep: 1
1 7.20415 6.21242 -0.052526
2 7.61943 5.61558 0.759526
1 8.08481 5.991 1.67089
1 8.0697 4.74623 0.280378
3 6.22747 5.17401 1.18052
4 5.75384 5.56284 2.21785
5 5.55376 4.49783 0.277924
6 6.03273 4.46739 -0.610759
2 4.14478 3.97003 0.222567
7 4.43632 2.92398 0.128309
2 3.34446 4.25701 1.56288
1 2.5429 3.52238 1.48598
1 3.92033 3.84618 2.39216
1 2.91647 5.25946 1.55805
3 3.27337 4.19587 -1.05095
4 2.66944 3.23032 -1.3716
5 3.19343 5.35197 -1.67923
6 3.85256 5.97232 -1.23111
2 2.26344 5.47528 -2.91023
7 1.23041 5.20982 -2.68555
7 2.22156 6.50498 -3.26527
7 2.41809 4.8701 -3.8035
