22
 Atoms. Timestep: 0
1 2.00456 7.43766 1.66553
2 1.84171 6.99001 0.685125
1 2.10967 7.73615 -0.0629242
1 0.860532 6.55347 0.498515
3 2.81401 5.97067 0.183118
4 2.6635 5.25989 -0.781113
5 4.0874 6.09062 0.633518
6 4.01983 6.71841 1.42182
2 5.44261 5.20572 0.503531
7 6.06978 5.01687 1.37479
2 6.36552 6.07922 -0.159509
1 7.41844 5.82518 -0.0373124
1 6.11996 7.09691 0.143979
1 6.14282 6.0385 -1.22574
3 5.47819 3.77912 -0.0618
4 6.27673 3.03268 0.464691
5 4.57498 3.2489 -0.931889
6 3.87941 3.96617 -1.07953
2 4.40985 1.80609 -1.32471
7 4.42909 1.13462 -0.466305
7 3.69634 1.8011 -2.14871
7 5.36116 1.62045 -1.82336
22
 Atoms. Timestep: 1
1 1.98346 7.43849 1.67062
2 1.84133 6.99256 0.686218
1 2.08947 7.7194 -0.0872314
1 0.868786 6.5361 0.5021
3 2.81662 5.96634 0.178497
4 2.6653 5.25528 -0.786846
5 4.08388 6.08848 0.632652
6 4.00494 6.71872 1.41793
2 5.44309 5.20892 0.500982
7 6.08627 5.01025 1.35828
2 6.36947 6.07833 -0.155022
1 7.41533 5.80816 -0.00911194
1 6.14334 7.09366 0.170647
1 6.12106 6.05195 -1.21601
3 5.47395 3.77656 -0.0547791
4 6.27449 3.03921 0.467047
5 4.57999 3.24903 -0.933742
6 3.88178 3.9669 -1.06515
2 4.40761 1.80954 -1.3262
7 4.43602 1.1366 -0.469199
7 3.69708 1.79912 -2.15271
7 5.36816 1.64676 -1.81502
