14
 Atoms. Timestep: 0
1 -7.18272 -1.65287 7.82935
2 -8.05638 -1.87876 7.1327
2 -7.67177 -1.17286 8.70312
2 -6.73521 -2.61346 8.17671
1 -6.10148 -0.77834 7.1601
2 -5.7505 -1.18351 6.1772
2 -6.60898 0.203142 6.93623
1 -4.94645 -0.590101 8.119
2 -4.63982 -1.59665 8.41965
2 -5.32495 0.06103 8.95801
1 -3.71608 0.212858 7.6131
2 -4.0463 1.24192 7.49348
2 -2.88335 0.190376 8.36102
2 -3.24665 -0.251581 6.72404
14
 Atoms. Timestep: 1
1 -7.1832 -1.65319 7.82918
2 -8.05019 -1.87774 7.13611
2 -7.66921 -1.17344 8.70127
2 -6.73722 -2.61081 8.17541
1 -6.10186 -0.777976 7.15969
2 -5.75193 -1.18296 6.18113
2 -6.60547 0.199146 6.93687
1 -4.94624 -0.589636 8.11927
2 -4.63924 -1.59535 8.42163
2 -5.32357 0.0553018 8.95617
1 -3.71592 0.212426 7.61329
2 -4.04469 1.24265 7.49135
2 -2.88722 0.191182 8.35916
2 -3.24914 -0.249215 6.72452
