ITEM: TIMESTEP
0
ITEM: NUMBER OF ATOMS
14
ITEM: BOX BOUNDS pp pp pp
-2.2206855000000001e+01 1.8793144999999999e+01
-1.9677098999999998e+01 2.1322901000000002e+01
-1.9241968000000000e+01 2.1758032000000000e+01
ITEM: ATOMS id type x y z fx fy fz
1 1 -4.20158 -3.23923 9.26174 22.6696 32.852 -61.8527
2 2 -3.72822 -2.29561 8.705 -23.1486 -58.1029 32.5491
3 2 -4.22526 -3.04912 10.3055 1.08707 5.94641 19.1623
4 2 -5.26828 -3.31308 8.93167 18.5044 4.60348 4.50542
5 1 -3.49305 -4.61841 8.97892 -51.4434 -5.38791 -1.51706
6 2 -3.40437 -4.80769 7.89134 2.85214 5.40289 11.0553
7 2 -2.51628 -4.78282 9.42874 3.94944 13.6858 1.15757
8 1 -4.47938 -5.70957 9.54758 -25.584 -2.0008 -3.14581
9 2 -5.26228 -6.06187 8.79374 32.3356 8.99264 15.7483
10 2 -5.17025 -5.32096 10.3476 22.6609 -3.72589 -12.3301
11 1 -3.64838 -6.86609 10.1307 19.2874 -19.4756 24.2286
12 2 -2.93059 -6.52139 10.9494 -28.2102 -9.7781 -20.0724
13 2 -4.20772 -7.79005 10.4604 5.6642 27.6068 -4.12686
14 2 -2.96692 -7.23906 9.37287 -0.6245 -0.618901 -5.36178
ITEM: TIMESTEP
1
ITEM: NUMBER OF ATOMS
14
ITEM: BOX BOUNDS pp pp pp
-2.2206855000000001e+01 1.8793144999999999e+01
-1.9677098999999998e+01 2.1322901000000002e+01
-1.9241968000000000e+01 2.1758032000000000e+01
ITEM: ATOMS id type x y z fx fy fz
1 1 -4.20118 -3.23866 9.26066 20.6121 25.108 -52.4143
2 2 -3.73303 -2.30767 8.71175 -18.9472 -49.698 27.4821
3 2 -4.22504 -3.04788 10.3095 1.18352 5.34963 15.7504
4 2 -5.26444 -3.31212 8.9326 16.003 4.51416 3.60796
5 1 -3.49395 -4.6185 8.97889 -50.1811 -4.72259 0.211434
6 2 -3.40378 -4.80657 7.89363 2.86294 5.02389 9.48631
7 2 -2.51547 -4.77998 9.42898 3.08555 13.4689 0.877937
8 1 -4.47983 -5.7096 9.54752 -19.2589 -1.86188 -1.98037
9 2 -5.25557 -6.06 8.79701 28.533 7.42055 12.5461
10 2 -5.16554 -5.32173 10.3451 20.2347 -2.66096 -10.007
11 1 -3.64805 -6.86643 10.1312 17.5519 -17.3616 18.697
12 2 -2.93644 -6.52342 10.9452 -24.8062 -8.29311 -16.404
13 2 -4.20655 -7.78432 10.4595 3.93759 24.2955 -3.0029
14 2 -2.96705 -7.23919 9.37176 -0.810888 -0.582417 -4.85075
