14
 Atoms. Timestep: 0
1 0.940878 -11.2278 6.65804
2 0.879916 -10.7575 5.64974
2 0.051917 -11.9044 6.65495
2 1.83789 -11.8736 6.67279
1 0.926182 -10.2564 7.8046
2 0.193034 -9.47025 7.66162
2 0.495895 -10.7961 8.73651
1 2.33647 -9.63673 8.08674
2 2.6833 -9.0632 7.15153
2 3.00574 -10.4892 8.31886
1 2.43447 -8.60126 9.23363
2 2.39439 -7.51957 8.90756
2 1.58604 -8.72821 10.016
2 3.28621 -8.69365 9.92316
14
 Atoms. Timestep: 1
1 0.940661 -11.2283 6.65738
2 0.881294 -10.7574 5.65343
2 0.0548471 -11.902 6.65631
2 1.83616 -11.8724 6.67305
1 0.925984 -10.2564 7.80568
2 0.192871 -9.46948 7.66005
2 0.501072 -10.792 8.72912
1 2.33662 -9.63652 8.08626
2 2.68183 -9.06911 7.15776
2 3.00538 -10.4866 8.31754
1 2.43368 -8.60089 9.23452
2 2.39439 -7.5254 8.9079
2 1.59209 -8.72766 10.0078
2 3.28714 -8.69459 9.91974
