14
 Atoms. Timestep: 0
1 -0.186978 -0.895966 3.24051
2 -0.164633 -2.03348 3.28636
2 -0.246019 -0.553572 4.321
2 0.817139 -0.557825 2.82382
1 -1.3215 -0.429189 2.42442
2 -1.09996 0.590941 2.12554
2 -1.46156 -1.03116 1.48093
1 -2.59835 -0.186264 3.18011
2 -2.53106 0.817762 3.73984
2 -2.88412 -1.06505 3.82737
1 -3.86191 0.016896 2.26825
2 -4.1226 -0.957139 1.75963
2 -4.73727 0.405501 2.84461
2 -3.72512 0.749587 1.44451
14
 Atoms. Timestep: 1
1 -0.186071 -0.896559 3.24123
2 -0.164977 -2.02667 3.28583
2 -0.245841 -0.554564 4.31475
2 0.810943 -0.559758 2.82591
1 -1.32183 -0.428957 2.42365
2 -1.0983 0.590759 2.1235
2 -1.46091 -1.02888 1.48566
1 -2.59924 -0.185948 3.18046
2 -2.53055 0.808895 3.73816
2 -2.88118 -1.06012 3.82615
1 -3.86192 0.0167229 2.26802
2 -4.12212 -0.952431 1.76258
2 -4.73439 0.402985 2.84314
2 -3.72403 0.747931 1.44714
