LAMMPS data file

 14 atoms
 13 bonds
 24 angles
 27 dihedrals
 2 atom types
 2 bond types
 3 angle types
 3 dihedral types

 -22.206855 18.793145  xlo xhi
 -19.677099 21.322901  ylo yhi
 -19.241968 21.758032  zlo zhi

Pair Coeffs

1 0.07 3.55
2 0.03 2.42


Bond Coeffs 

1 268 1.529
2 340 1.09

 Angle Coeffs

1 58.35 112.7 # 1  1-1-1
2 37.5 110.7 # 2  1-1-2
3 33 107.8 # 3  2-1-2

Dihedral Coeffs

1 1.3 -0.05 0.2 0 # 1  1-1-1-1
2 0 0 0.3 0 # 2  1-1-1-2
3 0 0 0.3 0 # 3  2-1-1-2

 Masses

 1 12.000000 # 1
 2 1.008000 # 2

 Atoms

1 1 1 -0.180000 1.146916 -11.516312 5.621027
2 1 2 0.060000 0.258642 -10.889780 5.864757
3 1 2 0.060000 0.727869 -12.514039 5.443302
4 1 2 0.060000 1.648533 -11.064922 4.731528
5 1 1 -0.120000 2.117645 -11.486332 6.813004
6 1 2 0.060000 1.742693 -12.123244 7.568332
7 1 2 0.060000 3.117559 -11.983978 6.460680
8 1 1 -0.120000 2.237897 -10.038936 7.338372
9 1 2 0.060000 1.244290 -9.770963 7.806032
10 1 2 0.060000 2.361301 -9.267506 6.495284
11 1 1 -0.180000 3.453698 -9.839006 8.416548
12 1 2 0.060000 3.119472 -10.531130 9.196445
13 1 2 0.060000 4.468400 -10.242281 8.126711
14 1 2 0.060000 3.445078 -8.752117 8.833260

 Bonds

1 2 1 3
2 2 1 2
3 2 1 4
4 1 1 5
5 2 5 6
6 2 5 7
7 1 5 8
8 2 8 9
9 2 8 10
10 1 8 11
11 2 11 12
12 2 11 13
13 2 11 14

 Angles

1 3 2 1 3
2 3 3 1 4
3 2 3 1 5
4 3 2 1 4
5 2 2 1 5
6 2 4 1 5
7 2 1 5 6
8 2 1 5 7
9 1 1 5 8
10 3 6 5 7
11 2 6 5 8
12 2 7 5 8
13 2 5 8 9
14 2 5 8 10
15 1 5 8 11
16 3 9 8 10
17 2 9 8 11
18 2 10 8 11
19 2 8 11 12
20 2 8 11 13
21 2 8 11 14
22 3 12 11 13
23 3 12 11 14
24 3 13 11 14

 Dihedrals

1 3 3 1 5 6
2 3 3 1 5 7
3 2 3 1 5 8
4 3 2 1 5 6
5 3 2 1 5 7
6 2 2 1 5 8
7 3 4 1 5 6
8 3 4 1 5 7
9 2 4 1 5 8
10 2 1 5 8 9
11 2 1 5 8 10
12 1 1 5 8 11
13 3 6 5 8 9
14 3 6 5 8 10
15 2 6 5 8 11
16 3 7 5 8 9
17 3 7 5 8 10
18 2 7 5 8 11
19 2 5 8 11 12
20 2 5 8 11 13
21 2 5 8 11 14
22 3 9 8 11 12
23 3 9 8 11 13
24 3 9 8 11 14
25 3 10 8 11 12
26 3 10 8 11 13
27 3 10 8 11 14


