ITEM: TIMESTEP
0
ITEM: NUMBER OF ATOMS
14
ITEM: BOX BOUNDS pp pp pp
-2.2206855000000001e+01 1.8793144999999999e+01
-1.9677098999999998e+01 2.1322901000000002e+01
-1.9241968000000000e+01 2.1758032000000000e+01
ITEM: ATOMS id type x y z fx fy fz
1 1 1.14394 -11.4992 5.51238 -45.6313 19.423 -5.98423
2 2 0.149329 -10.9448 5.7604 41.878 -28.055 -9.48045
3 2 0.918535 -12.574 5.31775 0.672873 17.4862 0.197327
4 2 1.48061 -11.0485 4.53904 3.71302 -7.60985 24.5251
5 1 2.09001 -11.4319 6.73208 6.78973 -12.9739 39.6098
6 2 1.69345 -12.1556 7.51806 11.6077 22.4324 -21.7476
7 2 3.09981 -11.7963 6.50091 -7.94878 -2.73544 -6.67187
8 1 2.29383 -10.0288 7.39461 -20.3519 -17.8178 -57.1796
9 2 1.39391 -9.71601 7.8857 -12.8919 10.5581 -2.64904
10 2 2.62675 -9.39313 6.54065 -18.5962 1.24934 15.4573
11 1 3.3838 -9.91132 8.33733 118.203 59.4592 68.6412
12 2 3.47766 -10.4688 9.30527 -21.8833 -4.88467 -24.8995
13 2 4.3722 -10.0687 7.81376 -26.9855 -5.78063 7.8467
14 2 3.62272 -8.82548 8.73599 -28.5754 -50.7509 -27.6651
ITEM: TIMESTEP
1
ITEM: NUMBER OF ATOMS
14
ITEM: BOX BOUNDS pp pp pp
-2.2206855000000001e+01 1.8793144999999999e+01
-1.9677098999999998e+01 2.1322901000000002e+01
-1.9241968000000000e+01 2.1758032000000000e+01
ITEM: ATOMS id type x y z fx fy fz
1 1 1.14314 -11.4989 5.51228 -38.8026 16.5283 -3.71842
2 2 0.15802 -10.9506 5.75843 35.2624 -24.2649 -7.97845
3 2 0.918675 -12.5704 5.31779 0.20305 15.2721 -0.24057
4 2 1.48138 -11.0501 4.54413 4.37789 -6.27639 21.6424
5 1 2.09013 -11.4322 6.73277 7.14486 -9.88198 35.0793
6 2 1.69586 -12.1509 7.51355 9.91453 19.2084 -18.1819
7 2 3.09816 -11.7969 6.49952 -7.21111 -2.88369 -6.57371
8 1 2.29348 -10.0291 7.39361 -21.4026 -17.5922 -52.8137
9 2 1.39124 -9.71382 7.88515 -11.2343 9.67112 -3.35279
10 2 2.62289 -9.39287 6.54386 -17.5807 2.37335 13.2588
11 1 3.38586 -9.91029 8.33853 108.744 51.8932 62.2916
12 2 3.47311 -10.4698 9.30011 -20.7659 -5.91619 -21.8689
13 2 4.3666 -10.0699 7.81539 -22.7442 -6.11557 6.37743
14 2 3.61679 -8.83601 8.73025 -25.9056 -42.0156 -23.9211
