14
 Atoms. Timestep: 0
1 -0.405872 -1.37348 3.22373
2 -0.986608 -2.31573 3.49337
2 -0.046521 -0.823695 4.07555
2 0.525999 -1.80149 2.75101
1 -1.1072 -0.423784 2.22811
2 -0.486548 0.463884 2.06597
2 -1.22571 -0.871524 1.24606
1 -2.50019 0.015258 2.70908
2 -2.46901 0.176148 3.76748
2 -3.21717 -0.830035 2.51276
1 -3.07846 1.32207 2.09188
2 -3.12897 1.29981 0.95314
2 -4.15132 1.51315 2.44393
2 -2.44034 2.20573 2.38629
14
 Atoms. Timestep: 1
1 -0.405614 -1.37424 3.22327
2 -0.984584 -2.3088 3.49275
2 -0.0471759 -0.823531 4.07834
2 0.521618 -1.79859 2.75289
1 -1.10729 -0.423602 2.22812
2 -0.486597 0.46322 2.06646
2 -1.2252 -0.872531 1.24571
1 -2.50058 0.0150397 2.7088
2 -2.46905 0.175906 3.77035
2 -3.21421 -0.826298 2.51422
1 -3.07869 1.32237 2.09158
2 -3.12809 1.29926 0.960159
2 -4.14384 1.51191 2.44218
2 -2.44368 2.20163 2.38484
