22
 Atoms. Timestep: 0
1 4.5378 3.21218 -3.65912
2 5.41062 3.54714 -3.09868
1 6.04152 4.34855 -3.48314
1 6.14778 2.7518 -2.98859
3 5.07176 4.04109 -1.72502
4 5.58272 3.4887 -0.75872
5 4.10113 4.98274 -1.53539
6 3.91171 5.4635 -2.4032
2 3.30579 5.2638 -0.364677
7 2.84106 6.21485 -0.624732
2 2.14004 4.19387 -0.266519
1 1.32609 4.53769 0.371746
1 2.43614 3.3454 0.350345
1 1.88134 3.7834 -1.24258
3 4.07372 5.6095 0.953874
4 3.45433 6.31322 1.702
5 5.1938 5.11502 1.32221
6 5.42799 4.39954 0.648905
2 5.53209 4.97469 2.71932
7 6.55966 4.65596 2.89427
7 5.41112 5.87708 3.31862
7 5.00534 4.07997 3.05116
22
 Atoms. Timestep: 1
1 4.5349 3.21823 -3.6576
2 5.40929 3.54743 -3.0962
1 6.03063 4.33864 -3.51573
1 6.14623 2.75165 -2.98777
3 5.07209 4.03695 -1.7287
4 5.58501 3.48406 -0.764577
5 4.09828 4.97972 -1.53891
6 3.88664 5.48163 -2.38943
2 3.30801 5.26551 -0.367175
7 2.85746 6.21752 -0.647868
2 2.14437 4.19214 -0.258336
1 1.32442 4.51983 0.380731
1 2.4547 3.35117 0.36179
1 1.85675 3.7938 -1.23132
3 4.06868 5.60784 0.960795
4 3.45168 6.32029 1.70469
5 5.19917 5.11504 1.32074
6 5.4358 4.3951 0.653068
2 5.52936 4.97781 2.71873
7 6.5641 4.67268 2.87463
7 5.42047 5.87966 3.32115
7 5.01259 4.08181 3.06261
