ITEM: TIMESTEP
0
ITEM: NUMBER OF ATOMS
22
ITEM: BOX BOUNDS pp pp pp
-5.0000000000000000e+01 5.0000000000000000e+01
-5.0000000000000000e+01 5.0000000000000000e+01
-5.0000000000000000e+01 5.0000000000000000e+01
ITEM: ATOMS id type x y z fx fy fz
1 1 0.346465 4.68712 -0.904522 55.1948 -51.6099 21.9338
2 2 1.17477 4.02135 -0.662111 -45.1313 -8.41602 -89.8721
3 1 1.43966 3.5751 -1.62065 -28.711 38.3962 127.53
4 1 0.946165 3.45221 0.238957 0.994632 0.51171 -47.9786
5 3 2.25507 4.89949 -0.157258 119.863 -57.5332 -88.6445
6 4 1.97416 5.91636 0.283199 -21.0619 71.7607 51.6972
7 5 3.5685 4.56275 -0.594669 -74.9268 102.219 78.0192
8 6 3.50541 3.7271 -1.15841 8.01141 -88.7335 -56.2323
9 2 4.83282 5.36968 -0.751662 -41.916 -29.244 -115.13
10 7 4.974 5.38848 -1.83232 -6.21986 1.17665 85.8421
11 2 4.58182 6.81757 -0.366115 21.4901 -112.792 182.495
12 1 5.44221 7.4584 -0.55892 101.049 68.1393 -30.3307
13 1 3.72128 7.23745 -0.886947 -91.6021 43.6011 -49.675
14 1 4.53195 6.79904 0.722586 -11.1777 10.0985 -80.4598
15 3 6.02232 4.57655 -0.211828 -77.635 12.085 82.1448
16 4 6.98068 4.53759 -0.887705 60.2032 -9.87404 -23.0132
17 5 5.80571 3.90791 0.995128 -18.4814 3.07073 -18.2327
18 6 4.8847 3.90514 1.40966 65.5037 8.59339 -30.0997
19 2 6.7583 2.85007 1.41173 110.333 127.427 20.7086
20 7 6.05462 2.04537 1.62481 -40.4254 -82.827 21.7891
21 7 7.41091 2.72303 0.547983 -18.5545 -15.9403 32.1201
22 7 7.38801 3.15829 2.24634 -66.8001 -30.1096 -74.6108
ITEM: TIMESTEP
1
ITEM: NUMBER OF ATOMS
22
ITEM: BOX BOUNDS pp pp pp
-5.0000000000000000e+01 5.0000000000000000e+01
-5.0000000000000000e+01 5.0000000000000000e+01
-5.0000000000000000e+01 5.0000000000000000e+01
ITEM: ATOMS id type x y z fx fy fz
1 1 0.333653 4.67276 -0.911363 -3.29686 -1.74325 7.30521
2 2 1.17326 4.02434 -0.66093 -11.6551 6.79297 8.06339
3 1 1.41659 3.56125 -1.61719 6.14418 -12.9952 11.1364
4 1 0.962906 3.43628 0.232395 -8.63643 -16.6455 -14.9682
5 3 2.25816 4.89436 -0.163355 110.943 -47.2939 -83.6759
6 4 1.97612 5.9128 0.27824 -20.1021 69.48 50.7191
7 5 3.56372 4.5619 -0.596434 -73.4091 13.3957 15.2882
8 6 3.48587 3.72392 -1.15486 17.5033 -1.1077 1.72507
9 2 4.83376 5.37205 -0.756523 -52.715 -40.0564 -23.2596
10 7 4.99724 5.37763 -1.83418 2.07094 5.08944 0.660972
11 2 4.58669 6.81416 -0.358272 25.8156 11.9797 26.2443
12 1 5.44614 7.45943 -0.54018 3.9463 -4.86068 -8.97928
13 1 3.72356 7.23649 -0.872809 0.87073 -0.656948 3.27358
14 1 4.51023 6.81507 0.729042 -12.0808 4.84674 -1.67631
15 3 6.01719 4.57493 -0.203275 -67.7352 18.3953 64.5192
16 4 6.97898 4.54419 -0.885603 55.544 -11.1887 -17.5699
17 5 5.81087 3.90705 0.992566 34.3035 3.31607 -37.2902
18 6 4.89601 3.91944 1.42033 3.89297 7.55941 -2.6485
19 2 6.75512 2.85398 1.41194 -20.9938 30.7215 -14.7903
20 7 6.05713 2.04143 1.61362 19.8644 -13.1497 5.95485
21 7 7.41902 2.72211 0.557569 -0.323771 -18.8069 4.16852
22 7 7.39844 3.17707 2.23038 -9.95104 -3.07192 5.79946
