ITEM: TIMESTEP
0
ITEM: NUMBER OF ATOMS
22
ITEM: BOX BOUNDS pp pp pp
-5.0000000000000000e+01 5.0000000000000000e+01
-5.0000000000000000e+01 5.0000000000000000e+01
-5.0000000000000000e+01 5.0000000000000000e+01
ITEM: ATOMS id type x y z fx fy fz
1 1 1.39811 3.13236 -1.31625 3.535 4.2211 79.1111
2 2 1.55329 3.31093 -0.252236 86.8355 -24.4119 -143.104
3 1 2.12693 2.4472 0.083919 -16.2221 12.5473 5.21648
4 1 0.560719 3.47839 0.165927 -64.2071 14.374 40.6822
5 3 2.46089 4.54541 -0.321475 -63.8624 -71.7191 41.3804
6 4 2.38143 5.25063 -1.26618 14.4085 39.1084 -35.0034
7 5 3.19297 4.65756 0.746443 42.1437 10.7126 22.8081
8 6 3.09938 3.96205 1.47281 2.42948 9.19484 -10.5191
9 2 4.46692 5.38592 0.63794 -6.47549 31.4894 8.66483
10 7 4.32879 6.06967 -0.19962 -6.55593 6.00144 14.7802
11 2 4.78728 6.2795 1.88724 -119.938 -81.2635 83.5878
12 1 3.86699 6.82035 2.10781 67.8707 -27.2958 -16.6667
13 1 4.93654 5.65598 2.76874 2.6095 61.1243 -86.4306
14 1 5.58121 6.93934 1.53742 43.3388 34.5164 2.71683
15 3 5.62115 4.58082 0.083699 -7.32889 2.92865 -28.7885
16 4 5.63656 3.36163 0.218454 15.6205 -2.131 3.39462
17 5 6.3953 5.28992 -0.779631 -5.82824 49.7404 18.625
18 6 6.27103 6.29013 -0.844727 -0.940292 -60.3979 10.0655
19 2 7.3666 4.77705 -1.70108 41.335 26.71 -2.7451
20 7 8.34831 4.88773 -1.24053 -35.1588 5.77014 -24.8348
21 7 7.29212 3.69512 -1.81052 -11.858 -5.71238 -10.7882
22 7 7.21217 5.37612 -2.5985 18.2489 -35.5073 27.8471
ITEM: TIMESTEP
1
ITEM: NUMBER OF ATOMS
22
ITEM: BOX BOUNDS pp pp pp
-5.0000000000000000e+01 5.0000000000000000e+01
-5.0000000000000000e+01 5.0000000000000000e+01
-5.0000000000000000e+01 5.0000000000000000e+01
ITEM: ATOMS id type x y z fx fy fz
1 1 1.37458 3.12958 -1.31123 -6.59169 -6.30991 0.82292
2 2 1.55408 3.31365 -0.251983 10.2339 1.24702 -38.9084
3 1 2.10646 2.42798 0.0619918 -5.4217 4.47099 9.81716
4 1 0.563927 3.46533 0.177765 8.46203 4.90956 10.0263
5 3 2.46078 4.54003 -0.325307 -60.7263 -66.4558 39.7783
6 4 2.38386 5.24664 -1.27227 14.7681 36.5802 -33.102
7 5 3.18994 4.65534 0.743854 45.4344 22.6688 13.8207
8 6 3.07868 3.9792 1.48585 2.34741 0.843424 -2.8127
9 2 4.46848 5.38935 0.635236 -7.70515 23.2443 15.8782
10 7 4.35196 6.05982 -0.216229 -11.0738 11.6842 12.2755
11 2 4.78969 6.27664 1.89336 -30.0537 -23.011 -30.8526
12 1 3.86403 6.80158 2.12939 5.1431 9.26642 -2.01906
13 1 4.95838 5.65865 2.77525 15.3651 1.69973 -5.0773
14 1 5.57081 6.96044 1.56114 1.73153 -0.911489 18.4187
15 3 5.61725 4.57904 0.0903195 4.69436 15.5328 -39.7021
16 4 5.63428 3.36833 0.220901 14.3599 -12.1012 5.57423
17 5 6.40065 5.28976 -0.781643 -12.5297 -11.102 37.5017
18 6 6.26855 6.29012 -0.825721 -5.17132 -2.60468 2.99626
19 2 7.36222 4.7792 -1.70128 20.1294 -4.82347 6.73023
20 7 8.3519 4.90217 -1.2614 0.839039 8.1421 -3.90711
21 7 7.30162 3.69632 -1.80984 -12.2189 1.80287 -10.6486
22 7 7.24026 5.39379 -2.5932 7.98391 -14.7728 -6.61031
