# LAMMPS data file written by OVITO Basic 3.7.8
22 atoms
4 atom types
-50.0 50.0 xlo xhi
-50.0 50.0 ylo yhi
-50.0 50.0 zlo zhi

Atoms  # atomic

1 1 2.0177833 1.0353295 0.0542168
2 2 1.9998067 2.1250666 0.0538082
3 1 1.4254166 2.4843904 0.90724
4 1 1.5326313 2.4823206 -0.8638698
5 2 3.4222907 2.6597886 0.1389017
6 4 4.3607216 1.8984493 0.3631598
7 3 3.5879191 3.9603571 -0.1138393
8 1 2.7859198 4.5436605 -0.3046603
9 2 4.8919526 4.5905945 -0.0675145
10 1 5.4432975 4.2337999 0.8026422
11 2 5.6616692 4.2349396 -1.3354247
12 1 5.1089564 4.5854833 -2.2068147
13 1 6.6419078 4.7111339 -1.3103306
14 1 5.7851258 3.1535202 -1.3931851
15 2 4.7222411 6.1004128 0.0215211
16 4 3.6035082 6.6057631 -0.0398724
17 3 5.8431179 6.824265 0.0735169
18 1 6.7415384 6.3635968 0.0875836
19 2 5.8209701 8.2733497 0.0569928
20 1 4.7879086 8.6215931 0.0518138
21 1 6.3303031 8.6556759 0.941733
22 1 6.3290771 8.6329497 -0.8383083
