22
Atoms. Timestep: 0
1 2.01778 1.03533 0.0542168
2 1.99981 2.12507 0.0538082
1 1.42542 2.48439 0.90724
1 1.53263 2.48232 -0.86387
2 3.42229 2.65979 0.138902
4 4.36072 1.89845 0.36316
3 3.58792 3.96036 -0.113839
1 2.78592 4.54366 -0.30466
2 4.89195 4.59059 -0.0675145
1 5.4433 4.2338 0.802642
2 5.66167 4.23494 -1.33542
1 5.10896 4.58548 -2.20681
1 6.64191 4.71113 -1.31033
1 5.78513 3.15352 -1.39319
2 4.72224 6.10041 0.0215211
4 3.60351 6.60576 -0.0398724
3 5.84312 6.82426 0.0735169
1 6.74154 6.3636 0.0875836
2 5.82097 8.27335 0.0569928
1 4.78791 8.62159 0.0518138
1 6.3303 8.65568 0.941733
1 6.32908 8.63295 -0.838308
22
Atoms. Timestep: 5000
1 0.633967 5.65669 -0.432403
2 0.838098 4.61292 -0.879561
1 1.33866 4.79235 -1.96423
1 -0.033763 3.86566 -0.71445
2 2.109 3.91306 -0.177682
4 2.20863 2.94886 0.619565
3 3.31532 4.49192 -0.577469
1 3.09833 5.64484 -0.6095
2 4.67649 4.19045 -0.0242799
1 4.46786 4.0373 1.19706
2 5.36249 3.00714 -0.989911
1 4.91986 3.28711 -2.09345
1 6.4409 3.31011 -1.38177
1 5.40776 1.88349 -0.835441
2 5.5215 5.50586 0.149858
4 4.93997 6.63436 0.0966348
3 6.83257 5.45428 0.477524
1 7.01387 4.30652 0.580813
2 8.00061 6.48438 0.408476
1 8.56341 6.58698 1.41392
1 8.67105 6.39844 -0.445225
1 7.52174 7.47855 0.350159
22
Atoms. Timestep: 10000
1 1.93427 1.39983 0.297762
2 2.86536 1.83458 0.928549
1 3.66254 0.946871 1.0131
1 2.48136 2.11208 2.01794
2 3.48841 2.98441 0.15755
4 4.10028 2.78864 -0.912423
3 3.31907 4.23196 0.714024
1 2.68019 4.29124 1.639
2 3.67656 5.49502 0.183879
1 2.90217 6.37344 0.321641
2 7.57464 8.31888 -2.6979
1 -48.6215 -12.4323 48.4225
1 4.54107 6.95949 2.31747
1 2.70229 8.57626 0.683263
2 4.94235 5.92268 -0.499267
4 5.09238 7.12208 -0.793517
3 5.89235 4.9439 -0.661516
1 5.46126 3.91046 -0.773487
2 7.17007 5.22934 -1.27928
1 8.08156 5.08248 -0.497012
1 7.36969 4.50073 -2.21544
1 7.17385 6.35346 -1.65328
22
Atoms. Timestep: 15000
1 1.97267 1.34545 0.204756
2 2.8077 1.84398 0.91746
1 3.61796 0.992562 1.13828
1 2.28848 2.15543 1.9393
2 3.4903 2.97555 0.170165
4 4.23858 2.7296 -0.799334
3 3.18814 4.24224 0.613088
1 2.49497 4.30139 1.5012
2 3.6971 5.50706 0.236637
1 3.01348 6.43371 0.494492
2 7.5794 8.40362 -2.74302
1 -48.6215 -12.4323 48.4225
1 4.89046 6.70531 2.38593
1 2.59932 8.85816 0.644216
2 4.95236 5.91722 -0.485203
4 5.11659 7.12393 -0.742542
3 5.88206 4.93285 -0.700798
1 5.45399 3.89715 -0.773119
2 7.14803 5.20994 -1.34147
1 8.06799 4.81379 -0.66776
1 7.228 4.67759 -2.42394
1 7.25243 6.38098 -1.48374
22
Atoms. Timestep: 20000
1 2.02199 1.2868 0.0828115
2 2.71414 1.85775 0.886497
1 3.49937 1.04959 1.29217
1 2.02792 2.21123 1.78842
2 3.48656 2.96222 0.187565
4 4.35176 2.6719 -0.665242
3 3.1208 4.24528 0.528337
1 2.34722 4.31696 1.3481
2 3.72832 5.49864 0.280477
1 3.11025 6.43521 0.642805
2 7.57728 8.46085 -2.77084
1 -48.6215 -12.4323 48.4225
1 5.17133 6.46113 2.4029
1 2.58209 8.92818 0.66767
2 4.96435 5.91826 -0.474025
4 5.12696 7.13079 -0.705876
3 5.88302 4.93926 -0.741009
1 5.4778 3.89206 -0.751928
2 7.13056 5.22194 -1.41172
1 8.04812 4.69424 -0.837201
1 7.13379 4.82625 -2.55673
1 7.29905 6.39321 -1.41871
22
Atoms. Timestep: 25000
1 2.08007 1.23829 -0.0408825
2 2.61379 1.87196 0.831869
1 3.32843 1.10699 1.41684
1 1.77819 2.26085 1.57948
2 3.48308 2.94998 0.209981
4 4.45543 2.62507 -0.502994
3 3.08083 4.24703 0.448863
1 2.22298 4.33869 1.17876
2 3.76388 5.48083 0.321633
1 3.20246 6.40872 0.784345
2 7.57318 8.51228 -2.79342
1 -48.6215 -12.4323 48.4225
1 5.42666 6.21122 2.38765
1 2.57497 8.94997 0.71622
2 4.97596 5.91963 -0.463755
4 5.13482 7.1374 -0.670521
3 5.87877 4.94686 -0.791146
1 5.50871 3.88833 -0.722925
2 7.1102 5.23793 -1.48561
1 8.02924 4.6583 -0.968995
1 7.07107 4.90747 -2.65097
1 7.30685 6.40366 -1.43404
22
Atoms. Timestep: 30000
1 2.14817 1.20226 -0.155981
2 2.52629 1.8851 0.758897
1 3.13668 1.15856 1.49373
1 1.57657 2.30032 1.33672
2 3.48289 2.94131 0.236216
4 4.54544 2.59454 -0.319773
3 3.06049 4.24851 0.37263
1 2.12678 4.36336 0.999873
2 3.79763 5.45971 0.355619
1 3.28015 6.36704 0.90559
2 7.56797 8.56029 -2.81197
1 -48.6215 -12.4323 48.4225
1 5.62315 5.97604 2.35388
1 2.5686 8.95511 0.774252
2 4.98625 5.92041 -0.453518
4 5.14829 7.14258 -0.629173
3 5.86108 4.95018 -0.852723
1 5.53507 3.88558 -0.695804
2 7.08358 5.24744 -1.55947
1 8.00938 4.66164 -1.06125
1 7.0287 4.92924 -2.72691
1 7.28167 6.41257 -1.49706
22
Atoms. Timestep: 35000
1 2.2302 1.17521 -0.256266
2 2.46537 1.89465 0.677964
1 2.95896 1.20057 1.52409
1 1.43862 2.32478 1.08948
2 3.48698 2.93803 0.264488
4 4.61707 2.5848 -0.130022
3 3.0541 4.24974 0.300267
1 2.05725 4.3858 0.817245
2 3.82233 5.44147 0.377118
1 3.33482 6.32307 0.99631
2 7.5618 8.60476 -2.82654
1 -48.6215 -12.4323 48.4225
1 5.76097 5.74295 2.31605
1 2.55949 8.96288 0.828096
2 4.99485 5.91987 -0.443089
4 5.17395 7.14441 -0.579118
3 5.82537 4.9471 -0.924255
1 5.54705 3.88344 -0.679425
2 7.05012 5.24599 -1.62746
1 7.98376 4.68266 -1.11332
1 7.00466 4.90321 -2.7867
1 7.23238 6.41479 -1.58467
22
Atoms. Timestep: 40000
1 2.32613 1.15058 -0.328688
2 2.43815 1.89796 0.6065
1 2.82484 1.23243 1.52792
1 1.36533 2.33064 0.872391
2 3.4964 2.93945 0.29172
4 4.66819 2.59351 0.0385241
3 3.05655 4.24821 0.241833
1 2.01107 4.39498 0.646257
2 3.82121 5.43842 0.369605
1 3.34256 6.29944 1.0238
2 7.55455 8.64482 -2.837
1 -48.6215 -12.4323 48.4225
1 5.84873 5.52424 2.27395
1 2.54577 8.99046 0.872517
2 5.00425 5.91741 -0.429497
4 5.21984 7.14021 -0.516324
3 5.77314 4.93888 -0.998959
1 5.53617 3.88098 -0.683003
2 7.01177 5.23225 -1.68312
1 7.95017 4.71429 -1.12443
1 6.99709 4.83571 -2.82335
1 7.16924 6.40544 -1.68599
22
Atoms. Timestep: 45000
1 2.40158 1.1544 -0.337826
2 2.47966 1.8861 0.612077
1 2.8636 1.21198 1.52884
1 1.39446 2.29222 0.866306
2 3.5191 2.95294 0.315824
4 4.68986 2.62361 0.0316081
3 3.06024 4.2477 0.383558
1 1.9752 4.36037 0.655617
2 3.67978 5.49645 0.150636
1 3.07529 6.43663 0.524216
2 7.546 8.67964 -2.84233
1 -48.6215 -12.4323 48.4225
1 5.74459 5.37679 2.22768
1 2.53741 9.03172 0.926899
2 5.00833 5.89971 -0.432144
4 5.32441 7.10335 -0.389125
3 5.71818 4.92668 -1.08338
1 5.45612 3.86936 -0.79365
2 7.01108 5.19607 -1.6713
1 7.91659 4.74598 -1.0023
1 7.08889 4.71181 -2.77041
1 7.15367 6.36793 -1.74961
22
Atoms. Timestep: 50000
1 2.32458 1.17914 -0.266386
2 2.49189 1.89271 0.68606
1 2.9483 1.19882 1.55348
1 1.43724 2.30245 1.04191
2 3.50998 2.95537 0.313582
4 4.64699 2.61681 -0.0763753
3 3.08311 4.25595 0.463306
1 2.0013 4.3696 0.758821
2 3.6407 5.48697 0.0489353
1 2.97401 6.43514 0.265388
2 7.53463 8.70889 -2.84418
1 -48.6215 -12.4323 48.4225
1 5.69553 5.29211 2.21499
1 2.51799 9.05141 0.970411
2 5.00603 5.89303 -0.451365
4 5.32864 7.09295 -0.373351
3 5.73913 4.92682 -1.08477
1 5.44014 3.86722 -0.850833
2 7.05678 5.19161 -1.61461
1 7.93595 4.79059 -0.880602
1 7.19585 4.65774 -2.68267
1 7.18789 6.36091 -1.74154
22
Atoms. Timestep: 55000
1 2.20598 1.21217 -0.156298
2 2.5041 1.90458 0.779833
1 3.04396 1.18493 1.57522
1 1.51035 2.3313 1.26699
2 3.49408 2.95092 0.301764
4 4.56948 2.59563 -0.223355
3 3.12511 4.26073 0.525675
1 2.06652 4.3899 0.898094
2 3.62439 5.46559 -0.024171
1 2.90518 6.39639 0.0709497
2 7.52124 8.73385 -2.84496
1 -48.6215 -12.4323 48.4225
1 5.69902 5.23943 2.19337
1 2.48709 9.08387 1.00956
2 5.00411 5.89261 -0.470077
4 5.30612 7.09824 -0.398922
3 5.78086 4.92622 -1.04581
1 5.44253 3.86547 -0.883615
2 7.11125 5.19536 -1.53814
1 7.97108 4.81103 -0.773474
1 7.28662 4.64935 -2.59451
1 7.23666 6.36437 -1.67675
22
Atoms. Timestep: 60000
1 2.10139 1.24334 -0.027428
2 2.53373 1.91458 0.87098
1 3.15353 1.171 1.58152
1 1.6214 2.3556 1.48788
2 3.47778 2.94727 0.28347
4 4.47253 2.58321 -0.376433
3 3.17384 4.26326 0.569708
1 2.15504 4.41187 1.03816
2 3.61745 5.44403 -0.0773541
1 2.8551 6.34704 -0.0714921
2 7.50637 8.75333 -2.84495
1 -48.6215 -12.4323 48.4225
1 5.71258 5.21468 2.18324
1 2.45868 9.15081 1.05973
2 5.00077 5.89352 -0.487319
4 5.27812 7.10626 -0.444642
3 5.82212 4.92105 -0.984437
1 5.44679 3.86314 -0.901439
2 7.15977 5.19449 -1.45326
1 8.00522 4.80179 -0.678577
1 7.35423 4.6591 -2.51267
1 7.28605 6.36525 -1.57906
22
Atoms. Timestep: 65000
1 2.03014 1.26968 0.0934614
2 2.57791 1.92013 0.942786
1 3.26376 1.15586 1.56537
1 1.75346 2.36701 1.66981
2 3.46423 2.94723 0.263175
4 4.37369 2.5854 -0.510615
3 3.22245 4.26515 0.600625
1 2.25297 4.4302 1.16132
2 3.61421 5.42751 -0.114258
1 2.81842 6.30237 -0.169049
2 7.49049 8.7657 -2.84341
1 -48.6215 -12.4323 48.4225
1 5.70871 5.21359 2.19105
1 2.4425 9.22548 1.11043
2 4.99623 5.89406 -0.502787
4 5.25386 7.11161 -0.499126
3 5.854 4.91229 -0.914725
1 5.44868 3.86098 -0.906605
2 7.19572 5.18671 -1.37196
1 8.03109 4.76676 -0.603022
1 7.395 4.67761 -2.4452
1 7.3297 6.35985 -1.46828
22
Atoms. Timestep: 70000
1 1.98306 1.29481 0.187855
2 2.62369 1.92144 0.988871
1 3.35617 1.13608 1.52621
1 1.88369 2.3666 1.80294
2 3.45455 2.94954 0.244036
4 4.28802 2.59675 -0.614443
3 3.26611 4.26572 0.622484
1 2.34734 4.44053 1.26071
2 3.61436 5.41947 -0.130742
1 2.7956 6.27214 -0.217125
2 7.47386 8.77039 -2.83964
1 -48.6215 -12.4323 48.4225
1 5.68295 5.23857 2.21007
1 2.43866 9.28235 1.14725
2 4.99155 5.89458 -0.517
4 5.23524 7.11391 -0.5588
3 5.8757 4.90308 -0.846771
1 5.45026 3.85934 -0.897845
2 7.21916 5.1753 -1.30216
1 8.04741 4.71127 -0.553951
1 7.41077 4.70818 -2.39808
1 7.36826 6.34972 -1.35354
22
Atoms. Timestep: 75000
1 1.96793 1.30498 0.228062
2 2.67115 1.91177 0.992362
1 3.43522 1.11276 1.45746
1 1.99469 2.34379 1.86663
2 3.45807 2.9526 0.214276
4 4.26047 2.61317 -0.679493
3 3.21951 4.25651 0.583455
1 2.39016 4.40482 1.33126
2 3.65049 5.47471 0.00701876
1 2.88832 6.37486 0.0471681
2 7.45636 8.76792 -2.83397
1 -48.6215 -12.4323 48.4225
1 5.63214 5.30434 2.23729
1 2.44176 9.344 1.17381
2 4.98781 5.88823 -0.537369
4 5.21716 7.10303 -0.684507
3 5.89416 4.88498 -0.755379
1 5.46104 3.8449 -0.827946
2 7.22377 5.15354 -1.25621
1 8.0591 4.62752 -0.564277
1 7.3715 4.74835 -2.38608
1 7.39777 6.32538 -1.24954
22
Atoms. Timestep: 80000
1 2.01274 1.27889 0.132927
2 2.65334 1.90076 0.937695
1 3.41172 1.11978 1.44357
1 1.9178 2.31096 1.77346
2 3.4597 2.96101 0.209176
4 4.30097 2.63246 -0.653154
3 3.20008 4.2583 0.587093
1 2.35257 4.39305 1.3161
2 3.67137 5.48832 0.0697065
1 2.94744 6.41271 0.182922
2 7.43779 8.76044 -2.82777
1 -48.6215 -12.4323 48.4225
1 5.55234 5.42555 2.28454
1 2.44186 9.46616 1.19089
2 4.99597 5.88434 -0.521526
4 5.20641 7.09105 -0.742738
3 5.90954 4.88094 -0.707578
1 5.47592 3.84177 -0.754348
2 7.20874 5.13465 -1.28894
1 8.06561 4.54503 -0.685174
1 7.26635 4.78829 -2.44873
1 7.42641 6.2984 -1.23828
22
Atoms. Timestep: 85000
1 2.02161 1.27662 0.0708888
2 2.62486 1.9 0.902711
1 3.36128 1.12043 1.44238
1 1.85212 2.3095 1.70449
2 3.46149 2.96038 0.208998
4 4.33185 2.6292 -0.623128
3 3.18104 4.25681 0.572521
1 2.33106 4.38563 1.29859
2 3.69755 5.49412 0.122583
1 3.00396 6.43291 0.291704
2 7.41507 8.7529 -2.82066
1 -48.6215 -12.4323 48.4225
1 5.52748 5.54819 2.30544
1 2.45683 9.59369 1.19476
2 5.00255 5.8799 -0.518552
4 5.20058 7.08336 -0.767774
3 5.9231 4.88137 -0.695689
1 5.4969 3.83862 -0.720802
2 7.20549 5.136 -1.31308
1 8.06859 4.51148 -0.758449
1 7.22113 4.83223 -2.48693
1 7.44572 6.29383 -1.22973
22
Atoms. Timestep: 90000
1 2.05441 1.26282 -0.0551203
2 2.55387 1.90487 0.828816
1 3.22554 1.13946 1.46576
1 1.69152 2.32437 1.52715
2 3.46314 2.95592 0.216958
4 4.41001 2.6084 -0.519688
3 3.15097 4.25602 0.539003
1 2.25632 4.38579 1.20792
2 3.73515 5.49434 0.187895
1 3.0955 6.44783 0.454069
2 7.38197 8.74893 -2.81304
1 -48.6215 -12.4323 48.4225
1 5.58714 5.63281 2.31685
1 2.47861 9.77355 1.18763
2 5.0161 5.87779 -0.506074
4 5.19825 7.08081 -0.770622
3 5.93701 4.88593 -0.707877
1 5.53158 3.83604 -0.672315
2 7.19113 5.14174 -1.37953
1 8.07391 4.50937 -0.868092
1 7.15475 4.84822 -2.55592
1 7.44024 6.29778 -1.29737
22
Atoms. Timestep: 95000
1 2.27068 1.15952 -0.186425
2 2.46712 1.92302 0.722607
1 2.93173 1.27289 1.61691
1 1.42355 2.36535 1.07363
2 3.49729 2.95281 0.294054
4 4.65285 2.59231 -0.0113722
3 3.03891 4.2506 0.218113
1 1.98969 4.39645 0.600516
2 3.73433 5.48298 0.148098
1 3.17598 6.41365 0.606416
2 7.29945 8.78706 -2.81002
1 -48.6215 -12.4323 48.4225
1 5.62432 5.28529 2.2572
1 2.50967 10.3552 1.19661
2 5.0541 5.87443 -0.457045
4 5.38932 7.0724 -0.405912
3 5.76324 4.8875 -1.08983
1 5.46566 3.8343 -0.811372
2 7.10437 5.1232 -1.57933
1 7.94344 4.6648 -0.832561
1 7.26107 4.62428 -2.66091
1 7.27911 6.29112 -1.65857
22
Atoms. Timestep: 100000
1 12.2014 3.72486 -3.17822
2 11.0226 3.45311 -3.31562
1 10.8944 2.53676 -2.44139
1 10.8017 3.03358 -4.52703
2 9.99263 4.5147 -2.82546
4 10.4472 5.16829 -1.87205
3 8.51845 4.3568 -3.00053
1 8.10868 3.96289 -4.00325
2 7.89389 3.99224 -1.77401
1 -8.26557 0.94478 -13.6126
2 -28.9449 13.6674 7.00575
1 -48.6215 -12.4323 48.4225
1 -44.5886 14.5417 35.1722
1 -6.32721 35.4841 -2.45629
2 7.18681 3.61713 -0.550312
4 5.9826 3.42222 -0.39856
3 8.01159 3.16741 0.455451
1 8.88437 2.96429 -0.0461322
2 7.38618 2.32546 1.4594
1 6.4736 2.93285 1.83105
1 6.97087 1.17231 1.0581
1 8.14901 1.84554 2.20756
22
Atoms. Timestep: 105000
1 13.317 0.0113165 -3.66927
2 13.5918 0.87975 -2.79922
1 14.6833 1.52784 -3.22775
1 13.86 0.418544 -1.63003
2 12.3795 1.75038 -2.3636
4 11.2988 1.21138 -1.9341
3 12.5525 3.10802 -2.42332
1 13.3532 3.4886 -3.22457
2 11.4318 3.95658 -1.95276
1 20.9054 -3.53975 -31.8383
2 -42.935 15.4696 10.8058
1 -48.6215 -12.4323 48.4225
1 24.9559 19.1798 -43.8501
1 28.8414 45.0892 -3.78564
2 10.4503 4.9317 -1.37773
4 10.4728 6.11846 -1.69359
3 9.52986 4.37591 -0.544514
1 9.30785 3.45411 -0.682026
2 8.54865 5.19399 0.0879388
1 8.67223 5.50526 1.20312
1 8.79771 6.27328 -0.210935
1 7.41478 5.01482 -0.27355
22
Atoms. Timestep: 110000
1 12.8401 -0.0750802 -3.33712
2 13.3331 0.729557 -2.60629
1 14.298 1.19 -3.13215
1 13.6949 0.130118 -1.62412
2 12.272 1.74567 -2.20668
4 11.1288 1.41377 -1.87063
3 12.6931 3.06538 -2.22265
1 13.7368 3.28012 -2.55816
2 11.861 4.16546 -1.89856
1 12.7922 -3.75273 -32.7039
2 -43.5995 15.5552 10.9863
1 -48.6215 -12.4323 48.4225
1 23.5095 19.4001 -42.8538
1 30.5117 45.5453 -3.84878
2 10.9773 5.31235 -1.58865
4 10.5221 6.15462 -2.36271
3 10.3104 6.64132 0.635182
1 10.903 -25.1397 -7.64701
2 8.37414 4.49232 -0.401113
1 8.15564 5.29543 -1.30469
1 8.20965 3.36212 -0.853682
1 7.53755 4.67432 0.481537
22
Atoms. Timestep: 115000
1 8.63399 15.7376 7.46149
2 7.74225 15.9242 6.71835
1 7.0329 14.9165 6.92622
1 8.11953 15.9584 5.6309
2 6.92621 17.2202 6.95662
4 6.27503 17.6243 5.96818
3 7.05874 17.928 8.188
1 -37.9234 -33.2121 6.133
2 -39.9349 8.3792 -34.4434
1 12.7922 -3.75273 -32.7039
2 -43.5995 15.5552 10.9863
1 -48.6215 -12.4323 48.4225
1 23.5095 19.4001 -42.8538
1 30.5117 45.5453 -3.84878
2 -4.90367 -17.8827 -1.12067
4 -5.33396 -17.1603 -2.01238
3 23.5167 -20.1418 -9.25873
1 10.903 -25.1397 -7.64701
2 4.10086 6.47106 -1.32124
1 5.00943 7.28304 -1.13707
1 3.04068 7.08184 -1.21288
1 4.14591 5.65675 -0.404654
22
Atoms. Timestep: 120000
1 -5.18041 -48.6249 21.8741
2 -5.61938 -48.4298 22.9825
1 -6.33183 -49.2596 23.3717
1 -6.30831 -47.4389 22.9191
2 -4.52839 -48.2378 24.017
4 -4.7242 -48.648 25.1557
3 -3.33524 -47.5879 23.5662
1 -34.8142 -9.18485 18.9839
2 45.2355 9.69706 19.2742
1 12.7922 -3.75273 -32.7039
2 -43.5995 15.5552 10.9863
1 -48.6215 -12.4323 48.4225
1 23.5095 19.4001 -42.8538
1 30.5117 45.5453 -3.84878
2 -20.2247 29.1218 -8.99039
4 -19.7941 28.253 -8.20888
3 20.765 34.1898 -36.5194
1 10.903 -25.1397 -7.64701
2 3.33173 8.80902 8.46835
1 2.63247 7.81295 8.64472
1 4.47297 8.51981 8.82248
1 2.9226 9.68336 9.22787
22
Atoms. Timestep: 125000
1 -18.234 -11.9608 45.7043
2 -18.8449 -12.9593 45.8795
1 -19.5525 -12.7367 46.8438
1 -18.083 -13.8403 46.0731
2 -19.7499 -13.1683 44.7082
4 -20.5183 -12.2517 44.3683
3 -19.771 -14.4422 44.1125
1 -42.3978 1.98034 30.5022
2 38.9058 18.7878 -23.8783
1 12.7922 -3.75273 -32.7039
2 -43.5995 15.5552 10.9863
1 -48.6215 -12.4323 48.4225
1 -8.7816 -9.40646 17.5563
1 30.5117 45.5453 -3.84878
2 -30.5207 -32.4307 -24.8674
4 -30.9866 -31.3887 -25.3216
3 20.0679 -3.70034 41.3031
1 10.903 -25.1397 -7.64701
2 2.65787 10.7727 17.2541
1 3.38907 10.2516 18.0941
1 2.99743 11.95 17.157
1 1.51346 10.7587 17.7046
22
Atoms. Timestep: 130000
1 -32.7875 22.0114 -35.8951
2 -33.9027 22.3253 -35.9047
1 -34.2054 22.3435 -37.028
1 -34.1405 23.3221 -35.3882
2 -34.5701 21.2137 -35.0467
4 -33.8722 20.2329 -34.6879
3 -35.8967 21.3875 -34.633
1 46.559 8.98406 41.5893
2 30.0364 34.8555 33.0685
1 12.7922 -3.75273 -32.7039
2 -43.5995 15.5552 10.9863
1 -48.6215 -12.4323 48.4225
1 44.5131 42.4187 -43.4711
1 30.5117 45.5453 -3.84878
2 -41.5152 5.75251 -42.3505
4 -41.2644 4.89351 -41.4963
3 21.0105 -38.3416 24.2351
1 10.903 -25.1397 -7.64701
2 1.93205 12.7869 25.7226
1 2.91999 12.245 25.23
1 2.30789 13.8489 26.2197
1 1.54346 12.0716 26.6437
22
Atoms. Timestep: 135000
1 -49.0471 -48.174 -16.4973
2 -49.1214 -47.0118 -16.4718
1 -49.4686 -46.6841 -15.3358
1 50.0146 -46.7532 -17.2088
2 -47.865 -46.3574 -17.0205
4 -47.1698 -46.965 -17.8436
3 -47.5138 -45.0573 -16.6483
1 29.6276 8.90495 -48.0576
2 12.7768 -49.6945 -7.30408
1 12.7922 -3.75273 -32.7039
2 -43.5995 15.5552 10.9863
1 -48.6215 -12.4323 48.4225
1 0.899313 -2.56736 -0.458972
1 30.5117 45.5453 -3.84878
2 48.8546 46.9964 43.9124
4 48.8553 47.4614 42.766
3 22.087 26.827 9.88487
1 10.903 -25.1397 -7.64701
2 1.338 14.5535 33.6157
1 2.16338 13.8633 34.2115
1 1.95156 15.4677 33.0699
1 0.604796 15.0578 34.4638
22
Atoms. Timestep: 140000
1 46.1085 -19.1269 -2.55931
2 45.1441 -19.8164 -2.35383
1 45.4646 -20.9164 -2.39268
1 44.3117 -19.6021 -3.23733
2 44.3348 -19.3154 -1.08219
4 44.0345 -18.1361 -0.963162
3 43.8937 -20.4563 -0.278191
1 0.255429 -6.13873 -39.2549
2 -41.1171 -29.145 -46.2605
1 12.7922 -3.75273 -32.7039
2 -43.5995 15.5552 10.9863
1 -48.6215 -12.4323 48.4225
1 -36.1827 -40.8161 -48.9121
1 30.5117 45.5453 -3.84878
2 42.7772 -3.13725 31.7269
4 42.5824 -2.62177 30.6233
3 24.441 -5.56467 -1.10406
1 10.903 -25.1397 -7.64701
2 0.829455 16.1929 40.3095
1 1.15198 17.0639 41.1136
1 0.0279305 15.4527 40.8771
1 1.83668 15.5266 40.0684
22
Atoms. Timestep: 145000
1 40.1043 6.97759 17.6122
2 40.0513 8.04229 18.1363
1 39.3978 8.83168 17.5215
1 41.128 8.5709 18.1485
2 39.4653 8.03399 19.5523
4 39.1547 9.13682 20.0353
3 39.2823 6.79928 20.1086
1 -22.1759 -12.8335 -29.5872
2 -15.6103 -0.238461 -1.24725
1 12.7922 -3.75273 -32.7039
2 -43.5995 15.5552 10.9863
1 -48.6215 -12.4323 48.4225
1 23.0912 17.1763 -2.12685
1 30.5117 45.5453 -3.84878
2 37.9138 46.1875 17.9929
4 37.4454 47.3082 17.7968
3 30.395 -47.0256 -16.3608
1 10.903 -25.1397 -7.64701
2 0.267325 17.9008 47.6747
1 1.35732 17.3393 47.5794
1 0.371669 18.7557 48.5518
1 -0.53987 17.0652 48.0759
22
Atoms. Timestep: 150000
1 33.7886 37.732 44.249
2 34.1222 36.789 43.5507
1 35.3392 36.6495 43.4562
1 33.8333 36.9777 42.3399
2 33.4766 35.3727 43.768
4 32.5129 35.0902 44.5216
3 33.9083 34.3573 42.8722
1 -49.5224 -25.4406 -20.5321
2 12.3871 19.4672 38.4208
1 12.7922 -3.75273 -32.7039
2 -43.5995 15.5552 10.9863
1 -48.6215 -12.4323 48.4225
1 -15.0543 -22.1694 48.0303
1 30.5117 45.5453 -3.84878
2 29.8298 5.71173 4.30239
4 30.0444 5.81051 3.08425
3 45.7051 -0.375183 -38.3459
1 10.903 -25.1397 -7.64701
2 -1.45943 21.1201 -46.2979
1 -2.26314 20.6862 -45.4764
1 -1.24384 22.2964 -46.0114
1 -2.01462 21.1064 -47.3955
22
Atoms. Timestep: 155000
1 26.8617 -36.8151 -32.1327
2 25.7297 -37.0595 -32.8576
1 26.0634 -37.8066 -33.7211
1 25.2911 -36.0763 -33.2649
2 24.7205 -37.6471 -31.7498
4 24.2679 -36.9169 -30.8598
3 24.8124 -39.0366 -31.8353
1 20.6333 -41.0122 -13.2398
2 45.9048 41.3452 -20.5399
1 12.7922 -3.75273 -32.7039
2 -43.5995 15.5552 10.9863
1 -48.6215 -12.4323 48.4225
1 46.2688 37.9368 -2.50668
1 30.5117 45.5453 -3.84878
2 24.3016 -38.635 -11.7534
4 23.477 -37.8519 -11.3116
3 -32.756 47.8486 41.7389
1 10.903 -25.1397 -7.64701
2 -6.42362 28.5803 -42.4381
1 -7.6117 28.6 -42.1272
1 -6.20261 29.5986 -43.0874
1 -6.25979 27.6212 -43.1925
22
Atoms. Timestep: 160000
1 7.88169 -18.095 -7.44113
2 7.29301 -17.2405 -8.05816
1 7.04908 -16.3868 -7.37555
1 6.21182 -17.6191 -8.57738
2 8.25629 -16.7428 -9.13136
4 9.37609 -16.3783 -8.69143
3 7.77788 -16.5869 -10.4023
1 19.0356 41.7365 2.10645
2 -14.013 -13.0153 16.8057
1 12.7922 -3.75273 -32.7039
2 -43.5995 15.5552 10.9863
1 -48.6215 -12.4323 48.4225
1 7.88439 -1.65535 47.3384
1 30.5117 45.5453 -3.84878
2 32.8983 28.4693 -21.771
4 33.5197 27.6627 -22.457
3 -2.55267 -5.35376 29.593
1 10.9005 -25.0637 -7.73013
2 -11.3891 35.9781 -38.6678
1 -12.4186 36.1525 -39.3186
1 -10.4731 36.5137 -39.2857
1 -11.1655 34.7702 -38.6579
22
Atoms. Timestep: 165000
1 -4.89307 3.55963 16.1994
2 -4.99969 2.3332 16.1862
1 -5.00294 1.98322 14.9756
1 -6.1801 1.99801 16.5913
2 -3.99998 1.73535 17.1084
4 -3.90186 2.31855 18.1827
3 -3.32216 0.561097 16.7956
1 23.6852 31.7046 22.6481
2 14.2055 42.051 42.6277
1 12.7922 -3.75273 -32.7039
2 -43.5995 15.5552 10.9863
1 -48.6215 -12.4323 48.4225
1 -28.1396 -38.8128 0.267609
1 30.5117 45.5453 -3.84878
2 42.7503 -7.12646 -35.2439
4 42.7874 -8.14131 -34.5521
3 18.6071 46.5681 17.6144
1 10.8827 -24.622 -8.18976
2 -15.9353 42.8492 -35.1469
1 -16.7226 43.7929 -35.1626
1 -15.2196 42.9561 -36.1412
1 -16.596 41.822 -35.2799
22
Atoms. Timestep: 170000
1 -15.3705 17.6061 44.7738
2 -15.0466 17.9089 43.5874
1 -14.1904 16.9744 43.39
1 -14.5201 18.9532 43.7014
2 -16.3113 17.7154 42.7331
4 -16.2095 16.9202 41.742
3 -17.5547 18.23 43.0826
1 38.6881 33.6202 -48.1825
2 48.7661 -7.00142 -37.2404
1 12.7922 -3.75273 -32.7039
2 -43.5995 15.5552 10.9863
1 -48.6215 -12.4323 48.4225
1 39.7479 28.0643 -41.6921
1 30.5117 45.5453 -3.84878
2 49.3673 -40.3632 -44.2441
4 -49.9757 -41.3519 -44.5108
3 37.3416 7.40443 5.24496
1 10.8668 -24.2283 -8.59949
2 -20.1546 49.0135 -32.1386
1 -19.0526 49.1829 -32.6605
1 -20.2683 49.851 -31.2471
1 -20.1391 47.9082 -31.603
22
Atoms. Timestep: 175000
1 -27.8105 33.9714 -32.4299
2 -27.5354 32.9325 -32.8671
1 -26.5341 32.5581 -32.576
1 -27.4859 33.211 -34.064
2 -28.5561 31.7637 -32.49
4 -29.3415 32.061 -31.5761
3 -28.1088 30.5741 -32.9585
1 -42.172 40.3098 -15.5657
2 -19.1932 47.1599 -13.8386
1 12.7922 -3.75273 -32.7039
2 -43.5995 15.5552 10.9863
1 -48.6215 -12.4323 48.4225
1 9.19843 -3.44638 18.3905
1 30.5117 45.5453 -3.84878
2 -43.0712 25.7919 45.8706
4 -43.6889 25.9059 46.9228
3 -42.1107 -27.8416 -7.11551
1 10.8517 -23.8537 -8.98928
2 -23.9295 -45.1922 -29.1238
1 -23.4658 -44.0681 -28.9423
1 -24.9323 -45.0652 -29.8263
1 -24.3006 -45.6135 -28.0313
22
Atoms. Timestep: 180000
1 -36.4879 45.2016 -8.66268
2 -35.9368 44.1267 -8.54637
1 -35.5846 44.1324 -7.32047
1 -35.0136 43.9106 -9.41608
2 -36.9135 42.9271 -8.65691
4 -36.6648 41.813 -8.10986
3 -38.0251 43.0965 -9.56968
1 -19.8234 -49.2979 19.7251
2 3.97484 1.30948 17.3574
1 12.7922 -3.75273 -32.7039
2 -43.5995 15.5552 10.9863
1 -48.6215 -12.4323 48.4225
1 -20.1388 -33.7067 -19.9429
1 30.5117 45.5453 -3.84878
2 -39.771 -3.50626 37.5245
4 -39.2847 -4.49669 38.0823
3 -23.6453 42.8939 -23.2901
1 10.8372 -23.494 -9.3636
2 -27.6648 -39.5409 -26.1671
1 -27.4666 -38.4672 -26.7313
1 -28.0119 -40.3471 -27.0277
1 -28.6208 -39.3838 -25.4089
22
Atoms. Timestep: 185000
1 -41.2323 -47.196 12.3643
2 -42.3779 -46.981 12.5828
1 -42.8619 -46.7902 11.478
1 -42.3255 -45.8221 13.1392
2 -43.3603 -47.8726 13.2995
4 -43.663 -49.0006 12.8577
3 -43.8723 -47.3395 14.5493
1 6.88302 -33.8767 -41.3526
2 20.8536 -44.0747 -45.3107
1 12.7922 -3.75273 -32.7039
2 -43.5995 15.5552 10.9863
1 -48.6215 -12.4323 48.4225
1 49.6756 41.7369 -37.9443
1 30.5117 45.5453 -3.84878
2 -34.0719 -33.0472 30.0574
4 -34.897 -32.1905 30.3219
3 -10.6685 17.9334 -39.6759
1 10.8235 -23.1545 -9.71692
2 -31.1045 -34.3869 -24.6882
1 -30.7899 -34.4705 -25.8729
1 -30.3567 -35.1308 -24.0568
1 -32.2433 -34.8358 -24.5821
22
Atoms. Timestep: 190000
1 -49.4939 -41.4884 27.4151
2 -48.8263 -40.6914 27.8467
1 -48.8957 -39.626 27.2017
1 -47.636 -41.0353 27.672
2 -49.2255 -40.6368 29.5189
4 49.5747 -40.4323 29.7071
3 -48.1969 -40.9353 30.2473
1 34.9467 -16.8894 -1.29928
2 36.8541 20.5812 5.99155
1 12.7922 -3.75273 -32.7039
2 -43.5995 15.5552 10.9863
1 -48.6215 -12.4323 48.4225
1 18.6485 18.0232 47.8734
1 30.5117 45.5453 -3.84878
2 -29.5986 35.0871 27.1753
4 -30.332 35.7856 27.8793
3 1.44004 -0.290851 46.1789
1 10.8101 -22.8213 -10.0637
2 -34.4108 -29.5244 -23.4851
1 -33.7102 -28.8383 -22.7438
1 -34.3015 -30.6888 -23.1117
1 -33.9266 -29.4553 -24.6131
22
Atoms. Timestep: 195000
1 42.3304 -36.2946 37.664
2 43.3285 -36.7679 37.8029
1 43.3822 -37.3855 36.8075
1 43.2981 -37.4005 38.8352
2 44.3858 -35.563 37.8802
4 44.7228 -35.1303 38.9703
3 44.8078 -35.0633 36.7001
1 -37.9554 -1.01643 37.9493
2 -44.1941 -4.98342 -24.1856
1 12.7922 -3.75273 -32.7039
2 -43.5995 15.5552 10.9863
1 -48.6215 -12.4323 48.4225
1 -12.7951 -6.00895 33.5007
1 30.5117 45.5453 -3.84878
2 -28.3639 1.30967 29.6505
4 -27.8024 0.868935 28.6657
3 18.7863 -13.3057 38.1528
1 10.7965 -22.4836 -10.4151
2 -37.5775 -24.4875 -22.1899
1 -37.8872 -25.4379 -21.4749
1 -38.4087 -24.4247 -23.0938
1 -36.4975 -24.7576 -22.7064
22
Atoms. Timestep: 200000
1 37.587 -31.4504 48.6401
2 36.8644 -32.0167 47.8093
1 35.8148 -31.7351 47.9262
1 37.0195 -33.2615 47.8219
2 37.545 -31.6308 46.4022
4 38.5319 -30.9009 46.5473
3 36.8685 -32.1705 45.2453
1 -6.37772 20.026 -19.0691
2 -22.6017 -29.4593 43.6283
1 12.7922 -3.75273 -32.7039
2 -43.5995 15.5552 10.9863
1 -48.6215 -12.4323 48.4225
1 -29.6238 -26.8339 13.8956
1 30.5117 45.5453 -3.84878
2 -26.36 -33.0539 31.1513
4 -26.9449 -32.4622 32.0659
3 34.7481 -24.6178 29.5363
1 10.7837 -22.1667 -10.7449
2 -40.6938 -19.8196 -21.0963
1 -40.5442 -20.7159 -21.9219
1 -39.5784 -19.3826 -20.828
1 -41.1412 -20.3345 -20.0732
22
Atoms. Timestep: 205000
1 29.8249 -29.9914 -43.6381
2 30.3441 -28.9784 -44.2861
1 29.6136 -28.4814 -44.9771
1 31.038 -29.1853 -45.1494
2 31.0768 -28.0614 -43.1809
4 30.4596 -27.1432 -42.5657
3 32.1611 -28.6199 -42.698
1 27.4293 43.641 25.7703
2 -2.98872 48.6053 4.44381
1 12.7922 -3.75273 -32.7039
2 -43.5995 15.5552 10.9863
1 -48.6215 -12.4323 48.4225
1 -35.3976 -45.6115 -8.97077
1 30.5117 45.5453 -3.84878
2 -26.0394 32.1614 38.6454
4 -25.8468 32.7988 37.6066
3 -48.7439 -34.2256 13.0274
1 10.7714 -21.8601 -11.064
2 -43.6811 -15.3397 -19.9017
1 -42.8435 -14.677 -19.2935
1 -43.3847 -16.5245 -19.7576
1 -43.5577 -15.0778 -21.0946
22
Atoms. Timestep: 210000
1 27.392 -22.7309 -32.0053
2 27.5822 -23.9639 -31.7281
1 28.0855 -24.251 -30.6591
1 28.2712 -24.4112 -32.6747
2 26.4446 -25.0259 -31.8142
4 26.1467 -25.709 -32.7641
3 25.6325 -25.0498 -30.5318
1 -36.726 -30.3924 -27.6922
2 -2.71979 24.9441 -45.9327
1 12.7922 -3.75273 -32.7039
2 -43.5995 15.5552 10.9863
1 -48.6215 -12.4323 48.4225
1 -40.9937 36.1889 -31.1332
1 30.5117 45.5453 -3.84878
2 -20.3485 0.038205 48.511
4 -20.2286 -0.856022 47.6705
3 -33.8947 -45.075 -6.0881
1 10.7594 -21.5629 -11.3733
2 -46.5047 -10.9372 -18.7576
1 -47.227 -11.7139 -19.3779
1 -46.2045 -10.0262 -19.5241
1 -45.4684 -11.542 -18.485
22
Atoms. Timestep: 215000
1 21.4646 -23.1469 -19.706
2 21.8015 -22.7287 -20.8777
1 20.914 -22.2804 -21.5347
1 22.1713 -23.7287 -21.3086
2 22.9617 -21.7243 -20.8306
4 22.725 -20.4796 -20.8026
3 24.241 -22.1088 -20.7596
1 -0.750855 -4.27548 18.954
2 -13.9264 7.13013 6.08685
1 12.7922 -3.75273 -32.7039
2 -43.5995 15.5552 10.9863
1 -48.6215 -12.4323 48.4225
1 -46.5784 18.0263 46.7494
1 30.5117 45.5453 -3.84878
2 -9.28394 -38.0352 -41.8233
4 -9.19576 -39.0229 -42.5554
3 -23.6692 49.6302 -24.6393
1 10.7474 -21.2664 -11.6819
2 -49.3229 -6.51651 -17.6812
1 -48.2688 -6.63935 -18.3018
1 -49.4956 -7.55505 -17.0451
1 49.7728 -6.44041 -18.5083
22
Atoms. Timestep: 220000
1 21.2559 -20.4898 -9.96061
2 20.1998 -20.943 -9.60616
1 48.4142 -8.96775 -22.3162
1 20.0279 -21.1475 -8.25954
2 19.2207 -20.7222 -10.7198
4 19.5944 -20.4621 -11.8746
3 17.9825 -20.5399 -10.1999
1 39.7968 27.1181 -30.5894
2 -26.7651 -15.2345 -36.1917
1 12.7922 -3.75273 -32.7039
2 -43.5995 15.5552 10.9863
1 -48.6215 -12.4323 48.4225
1 48.2358 1.16087 26.2115
1 30.5117 45.5453 -3.84878
2 4.49938 25.3096 -33.2667
4 4.42767 26.4233 -32.7416
3 -19.9307 43.2136 -43.6392
1 10.7363 -20.991 -11.9685
2 48.0232 -2.44393 -16.6715
1 46.8625 -2.75236 -16.9335
1 48.6336 -2.38079 -17.7356
1 48.5108 -3.37188 -16.0267
22
Atoms. Timestep: 225000
1 13.684 -28.1904 -0.872695
2 13.4791 -27.1537 -0.390874
1 -49.0756 23.5418 45.9739
1 12.4636 -26.6338 -0.904569
2 14.6373 -26.1171 -0.464387
4 15.1402 -25.7153 0.567808
3 14.9756 -25.5908 -1.77992
1 -15.9975 -37.267 22.9155
2 -32.4009 -38.4276 16.5083
1 12.7922 -3.75273 -32.7039
2 -43.5995 15.5552 10.9863
1 -48.6215 -12.4323 48.4225
1 43.369 -14.6669 6.93739
1 30.5117 45.5453 -3.84878
2 17.4428 -5.77425 -22.9611
4 17.5199 -5.07149 -23.9717
3 -22.6152 32.4694 43.5859
1 10.7259 -20.7325 -12.2375
2 45.5242 1.35094 -15.7156
1 46.3044 0.445615 -15.4314
1 44.4418 0.831143 -15.982
1 45.9399 1.87929 -16.744
22
Atoms. Timestep: 230000
1 -19.3523 45.2251 19.5312
2 42.469 5.72589 19.0172
1 -32.3478 -5.8797 40.8001
1 29.3777 -8.60796 -15.0193
2 -0.34664 42.5248 -13.8595
4 -1.36773 42.2311 -13.2418
3 6.89333 9.83139 16.069
1 -25.1022 -47.7736 15.3283
2 -39.8147 -33.6789 14.3633
1 12.7922 -3.75273 -32.7039
2 -43.5995 15.5552 10.9863
1 -48.6215 -12.4323 48.4225
1 42.5749 -17.2497 3.79217
1 30.5117 45.5453 -3.84878
2 25.2681 -9.89112 -30.0742
4 24.7838 -8.78502 -29.8708
3 -29.6248 31.8644 -48.4359
1 10.7242 -20.6904 -12.2814
2 45.1019 1.99802 -15.6529
1 46.3204 1.84689 -15.7004
1 44.7419 1.70469 -14.5152
1 44.6021 1.17574 -16.4172
22
Atoms. Timestep: 235000
1 41.7205 19.4443 38.9678
2 -26.8174 40.4682 35.6766
1 -32.3478 -5.8797 40.8001
1 29.3777 -8.60796 -15.0193
2 -19.418 9.75318 -24.3119
4 -19.1359 8.56103 -24.2059
3 11.6325 -47.3309 13.4389
1 -25.1022 -47.7736 15.3283
2 4.9618 46.1801 -19.5332
1 12.7922 -3.75273 -32.7039
2 -43.5995 15.5552 10.9863
1 -48.6215 -12.4323 48.4225
1 42.5749 -17.2497 3.79217
1 30.5117 45.5453 -3.84878
2 -37.7975 3.2624 29.1196
4 -37.6007 2.07022 29.3183
3 37.074 21.2445 -15.0793
1 10.7242 -20.6904 -12.2814
2 45.1026 1.99839 -15.6522
1 46.3198 1.83731 -15.7013
1 44.7404 1.69927 -14.5168
1 44.5957 1.18635 -16.4228
22
Atoms. Timestep: 240000