ITEM: TIMESTEP
0
ITEM: NUMBER OF ATOMS
22
ITEM: BOX BOUNDS pp pp pp
-5.0000000000000000e+01 5.0000000000000000e+01
-5.0000000000000000e+01 5.0000000000000000e+01
-5.0000000000000000e+01 5.0000000000000000e+01
ITEM: ATOMS id type x y z fx fy fz
1 1 1.77423 3.29418 3.09844 19.0049 -20.1434 -8.27006
2 2 2.47657 2.87428 2.37837 -17.7543 -78.3938 -125.56
3 1 1.9148 2.5798 1.49192 80.8905 33.5866 138.826
4 1 3.13388 2.07236 2.71448 -73.3537 88.175 -30.2552
5 3 3.30527 4.0834 1.84433 36.1788 -34.0211 -14.9149
6 4 3.43759 5.05229 2.57278 -9.56183 10.9819 -3.52421
7 5 4.0296 3.94962 0.664772 -77.0775 45.5604 105.247
8 6 4.15932 3.00908 0.320303 8.90491 -102.573 -47.1701
9 2 4.77729 4.94332 0.08611 102.379 -62.3418 -15.1142
10 7 4.2295 5.82742 0.412285 -44.1239 111.741 39.3911
11 2 6.26008 4.84268 0.655055 -91.4606 17.4188 78.802
12 1 6.63159 3.8699 0.332912 12.5016 -5.3556 9.17579
13 1 6.65824 5.65556 0.04777 43.4359 32.8918 -11.3383
14 1 6.23427 5.07441 1.71982 10.7188 -27.8928 -95.6838
15 3 4.74975 5.04125 -1.42302 2.40151 8.4233 -4.53331
16 4 4.67684 4.06993 -2.13177 -10.6606 -41.2858 5.11124
17 5 4.93185 6.23427 -1.97155 39.4081 66.0762 20.5827
18 6 5.07612 7.02226 -1.35645 -13.6088 -69.9647 -66.2163
19 2 5.2294 6.27554 -3.46467 43.5921 98.7541 46.3936
20 7 4.36297 6.78861 -3.88198 3.96212 1.42766 -17.4074
21 7 6.20089 6.66897 -3.76388 -62.0679 -5.10013 30.1474
22 7 5.36734 5.2714 -3.86563 -3.70928 -67.9653 -33.6885
ITEM: TIMESTEP
1
ITEM: NUMBER OF ATOMS
22
ITEM: BOX BOUNDS pp pp pp
-5.0000000000000000e+01 5.0000000000000000e+01
-5.0000000000000000e+01 5.0000000000000000e+01
-5.0000000000000000e+01 5.0000000000000000e+01
ITEM: ATOMS id type x y z fx fy fz
1 1 1.75391 3.28635 3.08533 6.48035 -10.2398 7.6187
2 2 2.47554 2.87606 2.37893 10.4113 37.3694 -44.6536
3 1 1.91448 2.56495 1.49772 -2.76742 -9.52573 4.21485
4 1 3.13519 2.07462 2.7116 -4.30798 3.33939 6.94655
5 3 3.3069 4.07868 1.83952 31.8133 -28.7388 -9.17834
6 4 3.4397 5.04793 2.5671 -9.14594 11.0932 -3.70136
7 5 4.02479 3.94792 0.663414 -59.9892 -56.6025 63.1558
8 6 4.13996 3.00303 0.325735 -3.52095 2.23186 -11.1047
9 2 4.78074 4.94512 0.0829917 39.6097 35.1043 28.5867
10 7 4.24488 5.83952 0.400784 16.7567 9.34171 3.81305
11 2 6.26299 4.84154 0.661091 -69.5224 23.8666 -43.4145
12 1 6.61714 3.85568 0.359851 10.0648 5.4168 11.4734
13 1 6.68855 5.65237 0.069864 23.1192 -5.42413 13.3856
14 1 6.2171 5.08255 1.72312 9.19312 -8.43645 -1.43771
15 3 4.74601 5.03957 -1.41598 7.40566 18.743 -16.0035
16 4 4.67421 4.07612 -2.1293 -11.3135 -45.6291 3.67557
17 5 4.93787 6.23436 -1.97353 20.1408 -13.6985 -27.6987
18 6 5.07101 7.02026 -1.35327 0.764097 5.03474 -10.0342
19 2 5.22506 6.27895 -3.46402 -1.8834 8.9143 27.4975
20 7 4.37468 6.80215 -3.90131 7.72558 -3.06204 -12.3844
21 7 6.19996 6.6703 -3.75471 -4.6858 18.7254 12.496
22 7 5.39087 5.28233 -3.8731 -16.3481 2.17638 -3.25275
