ITEM: TIMESTEP
0
ITEM: NUMBER OF ATOMS
14
ITEM: BOX BOUNDS pp pp pp
-2.2206855000000001e+01 1.8793144999999999e+01
-1.9677098999999998e+01 2.1322901000000002e+01
-1.9241968000000000e+01 2.1758032000000000e+01
ITEM: ATOMS id type x y z fx fy fz
1 1 -3.61318 -4.57586 9.81095 4.24639 -7.51935 -41.9495
2 2 -2.72698 -4.87382 10.383 -2.38377 11.1549 2.18353
3 2 -3.3011 -4.79085 8.72886 -16.9902 11.0572 33.4287
4 2 -4.35728 -5.30069 10.0985 -8.86934 -3.29471 0.3637
5 1 -4.11162 -3.11234 10.0424 12.4301 -41.9801 -27.2496
6 2 -3.86467 -2.99245 11.0653 -10.8241 16.3921 23.0099
7 2 -3.39084 -2.54893 9.50648 9.28306 19.0381 -8.5196
8 1 -5.55742 -2.71874 9.58411 26.4129 11.383 11.9409
9 2 -6.20411 -3.2891 10.2138 -15.2664 -7.91659 3.47483
10 2 -5.82616 -2.93994 8.52649 10.7883 1.58921 13.3344
11 1 -5.74777 -1.21546 9.91876 6.85589 29.0908 -17.3003
12 2 -4.96993 -0.548252 9.37134 -28.579 -29.671 26.3547
13 2 -6.72198 -0.899642 9.45628 16.0777 -3.94477 18.7176
14 2 -5.71336 -1.00805 11.0459 -3.18132 -5.37877 -37.7892
ITEM: TIMESTEP
1
ITEM: NUMBER OF ATOMS
14
ITEM: BOX BOUNDS pp pp pp
-2.2206855000000001e+01 1.8793144999999999e+01
-1.9677098999999998e+01 2.1322901000000002e+01
-1.9241968000000000e+01 2.1758032000000000e+01
ITEM: ATOMS id type x y z fx fy fz
1 1 -3.6131 -4.57599 9.81022 1.48117 -6.93728 -35.9526
2 2 -2.72747 -4.8715 10.3834 -2.10084 10.791 2.15076
3 2 -3.30463 -4.78856 8.7358 -15.2489 9.82577 27.9382
4 2 -4.35912 -5.30137 10.0986 -7.85986 -2.52671 0.0267531
5 1 -4.1114 -3.11307 10.0419 14.3888 -38.9387 -25.0755
6 2 -3.86692 -2.98904 11.07 -11.1742 15.5559 19.5856
7 2 -3.38892 -2.54498 9.50471 7.45443 17.2524 -7.01801
8 1 -5.55696 -2.71854 9.58432 25.1804 10.3268 14.6362
9 2 -6.20728 -3.29074 10.2145 -13.6873 -6.64126 2.20588
10 2 -5.82392 -2.93961 8.52926 10.268 1.29945 11.466
11 1 -5.74765 -1.21495 9.91846 4.75856 22.8758 -17.3272
12 2 -4.97586 -0.55441 9.37681 -23.8943 -25.4415 22.8791
13 2 -6.71864 -0.900461 9.46016 13.3412 -3.00347 17.1072
14 2 -5.71402 -1.00917 11.0381 -2.90712 -4.43817 -32.6223
