14
Properties=species:S:1:pos:R:3:forces:R:3:energies:R:1 original_dataset_index=0 energy=-17975.427734375 pbc="F F F"
C       -1.66860998       0.23161700       2.80035996     -36.71357346     -60.41675568     -18.96582603   -1289.80749512
H       -0.61111701       0.34277499       2.67445993      28.35009003      -5.01903772      -1.72795546   -1281.45922852
H       -1.99059999      -0.65975201       3.43816996      22.64446259      -7.64778233     -23.94454002   -1279.38537598
H       -1.99735999       0.84413201       3.55086994     -22.08642769      80.88507843      45.19352722   -1279.01904297
C       -2.48224998       0.23800400       1.47256994      62.54609299     -41.20291138     -22.80300331   -1291.22875977
H       -2.72317004      -0.82002401       1.35175002      -6.04395962     -17.28842735      -9.57060719   -1280.19714355
H       -3.44991994       0.68149900       1.51704001     -24.18195534      31.49817467      -0.99097371   -1281.57897949
C       -1.52102995       0.62901098       0.23334000     -83.02672577      80.38108826      50.16508865   -1291.27746582
H       -1.98171997       0.62867802      -0.75701100     -13.71803093     -14.15280056      -9.10618496   -1281.12585449
H       -0.66505098       0.04179390       0.21272901      51.26738358     -35.59469223       4.27878761   -1280.90893555
C       -1.19665003       2.15968990       0.45373300      35.35650635     -21.63612747     -12.47829437   -1294.81347656
H       -2.00875998       2.83825994       0.14022700      -3.45656300      -1.03715217       1.47860360   -1281.96252441
H       -0.85747999       2.38749003       1.48850000      -6.87329769      -0.96830672      -0.28946611   -1281.65649414
H       -0.29372099       2.34044003      -0.17777400      -4.06400394      12.19964886      -1.23915899   -1281.00598145
14
Properties=species:S:1:pos:R:3:forces:R:3:energies:R:1 original_dataset_index=1 energy=-17983.345703125 pbc="F F F"
C       -2.58197999       1.13712001       2.78752995       3.65233707     -64.69046021       8.44538689   -1292.98608398
H       -1.75127995       1.40189004       3.48548007       0.15541287       4.54763174     -13.38047504   -1281.75646973
H       -3.24293995       0.45236501       3.40155005      -4.62145901      25.80333328      -2.15574002   -1280.08581543
H       -3.09056997       1.94059002       2.33009005     -22.66322327      42.90956116      -2.64731836   -1281.46093750
C       -2.19566989       0.14279500       1.65048003      28.38910866     -10.27566528      25.30116081   -1294.46752930
H       -1.93961000      -0.75729799       2.25049996      -2.00986457     -10.53128910     -10.99943829   -1279.88842773
H       -3.03290009      -0.09315860       0.98825997     -14.06210327      -1.73960769      -3.85422730   -1281.58459473
C       -0.95207101       0.49507299       0.85371703      29.60151291      37.22302246      38.56218719   -1294.42114258
H       -0.42122701      -0.31018001       0.38200900       8.30114841     -35.71483612      -0.99907345   -1280.23181152
H       -0.22088100       0.93206298       1.61258996      -6.95900345      -9.35843849      -9.89684963   -1280.37878418
C       -1.08539999       1.47949004      -0.26064900     -38.30585861     -46.48862076     -28.15786934   -1294.42456055
H       -0.19035700       1.84862006      -0.65762502      51.87213135      13.80370235     -17.95510483   -1280.70886230
H       -1.62298000       0.95489299      -1.08713996       4.08814669       0.10771705      -5.60623646   -1280.43347168
H       -1.70236003       2.30119991      -0.11285800     -37.43828201      54.40395355      23.34359932   -1280.51757812
14
Properties=species:S:1:pos:R:3:forces:R:3:energies:R:1 original_dataset_index=2 energy=-17979.544921875 pbc="F F F"
C       -1.77602005      -0.13412000       2.61616993     -44.91899490       3.72588158      77.80155182   -1293.21557617
H       -0.81403702      -0.60164899       2.47538996      22.96424675      -3.08752561      -9.30280972   -1281.34826660
H       -2.33377004      -0.88460302       3.31364012       8.11029243      22.56220627     -21.68696213   -1280.88659668
H       -1.70383000       0.81737000       3.23468995      13.48809052     -18.87496567      -2.36215711   -1280.82153320
C       -2.49720001       0.27800000       1.36554003      25.33304787     -30.04407692      22.71377373   -1293.15881348
H       -3.12038994      -0.51911098       1.00908005      -2.90445709     -31.46099091     -25.30703735   -1280.52563477
H       -3.24043012       0.99167901       1.52796996     -38.51434326      48.99887085      21.39148521   -1279.63232422
C       -1.48803997       0.82525498       0.43508199      48.54079819     -26.39277267     -40.76718140   -1293.53479004
H       -1.97484004       0.73681903      -0.51915199      -2.61133623      -1.80878949     -37.78035355   -1279.52099609
H       -0.57220298       0.11834300       0.39145401     -21.53608513      18.96193123       0.31900069   -1280.49682617
C       -1.09835994       2.27840996       0.55360001       8.27199745      11.52830601      62.51297760   -1293.72814941
H       -2.00455999       2.84354997       0.33724001      -7.87834263      19.58937454       2.49872351   -1280.95422363
H       -0.63930202       2.59153008       1.56958997     -26.39597893     -12.03913212     -11.92245674   -1280.68981934
H       -0.28168699       2.65966010      -0.02464100      18.05106544      -1.65831745     -38.10855103   -1281.02966309
14
Properties=species:S:1:pos:R:3:forces:R:3:energies:R:1 original_dataset_index=3 energy=-17986.40234375 pbc="F F F"
C       -2.53464007       0.06952430       2.53363991      40.62801361     -72.59073639     -10.78309631   -1294.31835938
H       -2.67875004       0.97225302       3.07710004     -11.84300327      31.54135323      15.06138706   -1281.78466797
H       -2.56965995      -0.82270402       3.25750995       3.02334428      21.11518097     -10.64687347   -1281.15393066
H       -3.28710008      -0.19025099       1.79288995     -21.29463768      10.39478874      -7.73543119   -1281.46691895
C       -1.15094995       0.09662890       1.76116002     -39.74819565      35.35157013      17.20492935   -1293.19104004
H       -0.34470999       0.07162010       2.54936004      -1.31856954      -5.65783119     -18.68628883   -1281.29614258
H       -1.10292006      -0.67949301       0.98022699       5.35613060     -16.87411690       8.68361759   -1281.00085449
C       -1.02504003       1.43500996       0.92203701     -20.95532990     -25.28112411      41.92610931   -1292.51477051
H       -0.05805450       1.21405995       0.54267299      40.69152069      18.35319901     -24.06172752   -1279.52661133
H       -1.05133998       2.25939989       1.65232003      11.10003376       9.23282814       0.22510931   -1281.15600586
C       -2.05251002       1.68656003      -0.17171501      31.56549263      28.67284012       3.16016102   -1295.22290039
H       -2.19082999       0.79351097      -0.74481201     -19.76671219     -25.32604408     -16.16761017   -1281.43029785
H       -2.92726994       2.22391009       0.18925600     -22.29177475      -9.41330051       6.89474201   -1281.50683594
H       -1.62325001       2.43284011      -0.87098902       4.85368347       0.48138803      -5.07502413   -1280.83422852
14
Properties=species:S:1:pos:R:3:forces:R:3:energies:R:1 original_dataset_index=4 energy=-17976.94140625 pbc="F F F"
C       -1.79311001      -0.68453199       1.75138998    -107.18570709      37.11234283      20.71072197   -1292.77038574
H       -2.42254996      -1.32388997       2.37381005      -3.99865294     -18.52715111       5.36352253   -1281.05346680
H       -0.82209200      -0.83658499       1.97976005      95.30409241     -15.87294674      17.60389709   -1280.21276855
H       -2.04085994      -0.88648999       0.72373700       1.32663786      -7.93936729     -23.90957642   -1281.13842773
C       -2.23704004       0.77681202       2.09793997      37.06201172     -56.48001099       4.50921583   -1294.00927734
H       -3.17386007       0.99072999       1.67694998     -58.51150131      -5.16396379     -14.21967793   -1278.38232422
H       -2.32244992       0.99697500       3.17167997       5.77427244      -3.43483353       9.62028599   -1281.16003418
C       -1.39747000       1.75580001       1.36538005      -6.87537909      28.70476151      33.29837799   -1291.72143555
H       -0.38841599       1.80935001       1.79974997       8.78382969       6.20659256       1.25991440   -1281.47753906
H       -2.03098989       2.64018989       1.73609996      32.09461975       8.65323448     -30.09561729   -1277.86083984
C       -1.38136005       1.48776996      -0.11834000      13.67685318      18.53339577     -35.17531204   -1293.77673340
H       -0.53145099       0.89915401      -0.57968497      -2.21140695       6.81547642      20.95068169   -1281.38659668
H       -2.25907993       0.90948302      -0.48199299      -7.51970434      12.55313015       1.03312886   -1280.98205566
H       -1.29630005       2.50332999      -0.58458000      -7.71996546     -11.16065693     -10.94956303   -1281.00817871
14
Properties=species:S:1:pos:R:3:forces:R:3:energies:R:1 original_dataset_index=5 energy=-17976.505859375 pbc="F F F"
C       -2.67514992       0.41888401       2.82588005     -18.18607712      17.22651291      36.60142136   -1294.37487793
H       -3.49532008       0.97860700       3.28154993     -30.46143341     -10.17063427       5.87969255   -1279.31298828
H       -2.02693009       0.44541901       3.67060995      38.92262268      -8.26619911      24.44246292   -1280.57250977
H       -2.90306997      -0.59024400       2.56118989     -11.88858509     -29.85946465      -6.00867081   -1281.53186035
C       -2.27768993       1.28422999       1.71227002      34.33243942     -24.87261963     -44.64573669   -1291.84631348
H       -3.17937994       1.20843995       1.06193995      12.06644917       8.03210449     -17.75192261   -1279.95166016
H       -2.24743009       2.29292989       2.10740995       9.37427616      22.83507538      -3.28165555   -1280.47424316
C       -0.89501101       0.79611099       1.01492000     -28.92802429      59.11056519     -10.33708382   -1292.13146973
H       -0.50566900      -0.15408900       1.35441995      -5.89581633     -23.04815865      10.55033684   -1281.13159180
H       -0.10955500       1.51405001       1.29225004       6.66269207       7.07003021      10.10513306   -1280.92504883
C       -0.94194198       0.82803297      -0.52884299     -30.10617447     -37.01960373      48.60995102   -1292.56347656
H       -1.78427005       0.20131500      -0.78671002     -35.23185349      -2.82379055     -10.91701221   -1279.94897461
H       -1.03623998       1.77432001      -0.99666101       4.98519325      32.74177933     -16.90775108   -1281.91796875
H       -0.22867700       0.13390000      -0.87160099      54.35430145     -10.95559025     -26.33916283   -1279.82214355
14
Properties=species:S:1:pos:R:3:forces:R:3:energies:R:1 original_dataset_index=6 energy=-17978.42578125 pbc="F F F"
C       -2.08635998       0.32750699       3.12435007       7.58535528     -12.55787373       0.06855945   -1294.68750000
H       -3.02721000       0.89336801       3.18493009       0.49474430      12.11655521       5.71052170   -1281.64367676
H       -1.39364004       0.45627499       3.98160005      -6.86199951       8.97651958       1.76035559   -1281.56481934
H       -2.37827992      -0.71559298       3.14849997     -12.31417084     -21.16287994      12.70279408   -1280.18591309
C       -1.37083006       0.44329000       1.78805995     -62.65718460       7.21817446     -16.24425888   -1291.86035156
H       -0.40135401       0.81133199       1.86487997      57.59509659      19.47538185       5.04623556   -1279.96447754
H       -1.38039994      -0.48118299       1.27434003      17.75264740     -52.50852966      -5.21560287   -1278.61010742
C       -2.10169005       1.23894000       0.69667798      18.05059624     -14.84487247      16.42698860   -1292.71594238
H       -1.99909997       2.23885989       1.01328003     -22.47614288      50.80401993      21.27499199   -1278.65185547
H       -3.14833999       0.89446998       0.57240701      -0.06047121       5.63917160      -1.59447610   -1281.70568848
C       -1.27124000       1.29674006      -0.57169503     -24.97641945      20.53767014      -0.77393913   -1294.33459473
H       -0.20952500       1.31505001      -0.28902999       8.51681614      14.64273739      -4.49497318   -1280.85437012
H       -1.39370000       0.41622901      -1.17158997      -5.76706219     -22.22652817     -24.07391357   -1281.36865234
H       -1.70483994       2.22320008      -1.06169999      25.11818695     -16.10954666     -10.59328556   -1280.27783203
14
Properties=species:S:1:pos:R:3:forces:R:3:energies:R:1 original_dataset_index=7 energy=-17977.4140625 pbc="F F F"
C       -2.25915003       0.41352701       3.07869005       8.70295238      48.50571060      -7.66232729   -1292.08776855
H       -2.89051008       1.28945005       3.55470991      29.63995743     -32.38026047     -16.69163132   -1281.27392578
H       -1.77825999      -0.24120800       3.77398992      18.62718391      -3.44191623      38.54793549   -1280.75000000
H       -2.92663002      -0.29672500       2.65289998     -35.66859818     -17.59545326     -20.41915703   -1279.92480469
C       -1.24708998       0.78578103       1.92211998     -32.30646515     -13.43412399      22.25433922   -1293.20800781
H       -0.73967302       1.72456002       2.04061007      -2.37860870      38.43801880       4.50113010   -1280.73083496
H       -0.37281799       0.17563500       1.94034004      24.37695885     -37.55004883       2.97841048   -1280.44042969
C       -1.96680999       0.67533898       0.60521799      -3.92794991      58.65475845       4.06396437   -1292.59985352
H       -2.90244007       1.27787995       0.78469700      -4.35309315     -22.11384201      -7.69572592   -1279.42614746
H       -2.12039995      -0.28614199       0.19416299     -18.83707619     -49.32491302       8.12009144   -1280.06787109
C       -1.33718002       1.38303995      -0.55604601      23.71189499      43.69285583      -5.06437492   -1294.36499023
H       -1.45141006       2.46827006      -0.42873400     -11.76484680      15.09194469      -0.83647984   -1280.29626465
H       -0.23525500       1.40620005      -0.67433900       4.90629148     -24.85657883      -1.44718122   -1281.24133301
H       -1.85583997       1.11486995      -1.47049999      -0.72861111      -3.68615818     -20.64899635   -1281.00207520
14
Properties=species:S:1:pos:R:3:forces:R:3:energies:R:1 original_dataset_index=8 energy=-17984.892578125 pbc="F F F"
C       -2.10535002      -0.41217601       2.73587990     -47.43153000     -19.38314629      -2.44718027   -1295.27233887
H       -3.11695004      -0.86695600       2.42790008      18.05938148       8.31053448      16.66521454   -1280.52014160
H       -2.33661008       0.36570799       3.50015998       6.93458176      -2.54957676      -1.85516572   -1281.70593262
H       -1.51045001      -1.23307002       3.17230010       0.83521676      -1.20174599       6.01750660   -1281.51171875
C       -1.48945999       0.10437200       1.45405996     -23.83428574      61.47719955      33.25764084   -1294.09289551
H       -0.45461100      -0.06278140       1.51998997      54.47779465       1.36518967      -5.18117523   -1280.61987305
H       -1.86776996      -0.44018000       0.64336902     -14.40836430     -32.41399765     -42.65640640   -1279.88647461
C       -1.86816001       1.60268998       1.15117002       2.95083451     -35.79647827     -39.98044205   -1292.60559082
H       -1.65769005       2.27744007       1.97657001      20.24764252      13.30735493       9.00468159   -1281.57214355
H       -2.97485995       1.62940001       1.14077997      -7.45769501      -0.99686259      -6.81736040   -1280.69787598
C       -1.32128000       2.00573993      -0.31051001     -23.49338722      -9.39651680      84.08306885   -1293.28125000
H       -0.27458200       2.17680001      -0.26016700      42.57021332     -10.46286392      -5.49735308   -1281.22155762
H       -1.69256997       1.31131995      -1.02669001      -2.52410078     -23.55928421     -25.72326469   -1281.52819824
H       -1.69634998       2.96395993      -0.49569699     -26.92631149      51.30020523     -18.86976624   -1280.37609863
14
Properties=species:S:1:pos:R:3:forces:R:3:energies:R:1 original_dataset_index=9 energy=-17984.05859375 pbc="F F F"
C       -2.93482995      -0.34618300       2.36784005     101.45234680      -2.71325827      15.39563084   -1292.80761719
H       -2.46785998      -1.36617005       2.43393993      -1.24893892       4.90558004       7.24512148   -1280.37609863
H       -3.92739010      -0.57800603       2.19051003     -68.45011139       1.39212072      -3.47282100   -1280.88854980
H       -2.63887000       0.14842600       3.34598994     -20.42117691      -3.87325740     -14.22239590   -1281.51599121
C       -2.21649003       0.32385001       1.16728997      37.70829010     -31.10095787      29.21855354   -1292.91540527
H       -1.80318999      -0.47582701       0.52163601      -1.67141402      -3.22484922      -5.36618185   -1280.31176758
H       -2.84001994       0.86918700       0.56900603     -63.68587112      37.72136307     -46.65092468   -1279.12097168
C       -1.05250001       1.28878999       1.40521002     -16.77475929      25.87064171      18.63393211   -1294.20922852
H       -0.26905200       0.71233100       1.87993002      29.91587257      -9.73571396      -2.52673817   -1280.84582520
H       -1.28144002       2.01116991       2.24534988      -6.28640413      -1.57179892     -12.38386440   -1281.11523438
C       -0.64798701       2.05339003       0.10290000       2.73255324     -49.20065689      17.91785622   -1295.88342285
H       -0.60219300       1.30367005      -0.70873702       0.19108179      -2.08074760      -6.85988951   -1281.00720215
H       -1.30088997       2.84083009      -0.23414800     -20.00195122      17.74812126       0.85864198   -1281.77160645
H        0.35263100       2.42719007       0.20453499      26.54048729      15.86341095       2.21308470   -1281.28930664
14
Properties=species:S:1:pos:R:3:forces:R:3:energies:R:1 original_dataset_index=10 energy=-17988.701171875 pbc="F F F"
C       -2.29764009      -0.46720701       2.56024003       2.00908971      21.49077225      23.02704430   -1295.23010254
H       -3.15755010       0.01579400       3.10764003      16.48519897       8.77527237      -3.27120686   -1281.23059082
H       -1.78047001      -1.10176003       3.26636004       7.04722404     -16.82024574      15.97067261   -1281.26586914
H       -2.80616999      -1.05378997       1.85644996     -21.36064911     -39.03009796     -37.64727783   -1280.43957520
C       -1.30276000       0.46061301       1.86041999     -31.58824348     -45.48004532     -50.48776627   -1292.98632812
H       -0.94319397       1.04297996       2.62478995      29.17114258      63.05212402      46.83829498   -1279.82299805
H       -0.39227501      -0.08573420       1.47019005     -13.43539810      -0.78656548       3.31066966   -1281.09655762
C       -2.01918006       1.14944994       0.67538399     -16.80010033      18.21747971      35.82247162   -1294.81579590
H       -2.99849010       1.66299999       1.04710996      23.61071968     -22.30828476     -11.80787563   -1280.80578613
H       -2.21720004       0.36547399      -0.07440870     -14.76720428      -6.29422951       0.82653457   -1280.34033203
C       -1.18899000       2.16638994      -0.05050150      -3.20566750       2.00871325     -24.57474709   -1296.76660156
H       -0.32676899       1.62381995      -0.46136501      15.50014687       4.75147390      -2.76465249   -1280.96533203
H       -1.78293002       2.49263000      -0.92766500       2.52593064       7.48290443      -3.71014714   -1280.91833496
H       -0.88789397       3.05667996       0.51148498       4.80780935       4.94073296       8.46798801   -1282.01904297
14
Properties=species:S:1:pos:R:3:forces:R:3:energies:R:1 original_dataset_index=11 energy=-17972.3203125 pbc="F F F"
C       -1.67392004      -0.49618700       2.40807009     -18.75529289      15.60751438      75.59056091   -1290.46508789
H       -2.82136989      -0.63744998       2.66206002      41.41170883       8.75132847      -7.22372198   -1280.45251465
H       -1.09967995      -0.95236498       3.29241991     -13.82974529      20.55300522      -3.50651264   -1280.60778809
H       -1.43808997      -1.30455005       1.74652004       7.32307625      -4.56435299     -46.98222733   -1281.03784180
C       -1.33790004       1.05228996       2.15402007      12.19793415     -79.51175690    -107.29760742   -1290.16198730
H       -1.57875001       1.67009997       2.95179009      -7.56351280      29.31277657      55.14817047   -1281.20422363
H       -0.24408600       1.20581996       1.74450004     -35.35161972      -5.54800224      26.22537613   -1280.63244629
C       -2.27553010       1.45359004       0.91521198      30.89473152      61.06127548      45.39748764   -1289.92700195
H       -2.31998992       2.61719990       0.99179697     -21.29683685     -30.39348793       7.76509333   -1279.14367676
H       -3.29258990       0.93273401       1.03242004      23.35089684      17.49423409     -13.28285503   -1281.41918945
C       -1.53760004       1.34428000      -0.41018000     -58.78196335     -37.08105087       1.35193479   -1294.14892578
H       -1.50273001       0.27517399      -0.63282001      10.46830368     -11.84841728     -17.49993515   -1281.36108398
H       -2.20005012       1.85660994      -1.10036004     -10.08980465       0.32635731     -26.29249763   -1280.43017578
H       -0.60066199       1.82331002      -0.52459502      40.02213287      15.84057808      10.60673714   -1281.33020020
14
Properties=species:S:1:pos:R:3:forces:R:3:energies:R:1 original_dataset_index=12 energy=-17981.224609375 pbc="F F F"
C       -1.69442999      -0.54707497       2.17664003      32.13863754      38.58632660      94.66307831   -1293.60375977
H       -2.54432988      -0.63279003       2.90555000       4.36932659       3.76648712      -5.40828991   -1281.37048340
H       -0.86180103      -1.11217999       2.64176011      -2.96487641     -15.72221851      -6.21370745   -1281.23034668
H       -2.03421998      -0.94141698       1.27655995      -9.48539352     -20.41504288     -56.19025040   -1281.25036621
C       -1.16880000       0.94141102       2.11151004     -84.44721222     -14.98358727       1.19374573   -1291.38732910
H       -1.09508002       1.48768997       3.10820007      -4.29765224     -16.78613091     -14.71681023   -1281.69506836
H       -0.21587101       0.92445803       1.64532006      37.40238571       5.07605028     -15.15511703   -1280.69274902
C       -2.18674994       1.65216005       1.09940004      11.40023708     -61.22001266      37.80987167   -1291.84667969
H       -2.07384992       2.66508007       1.35004997      -1.19939899      57.07020950      -4.21238804   -1280.44433594
H       -3.30099010       1.36907995       1.27198005      33.58074951       5.02678013       0.10253107   -1280.94677734
C       -1.75817001       1.30648005      -0.30843401     -46.37038040      -8.76638985     -25.61833572   -1293.75024414
H       -0.70359999       1.31342995      -0.55003297      21.60290146       6.07656050       2.75207067   -1281.66333008
H       -2.18287992       0.35022101      -0.75688797       7.01882029       9.68237305      17.65509605   -1281.18286133
H       -2.28526998       2.07482004      -0.87162602       1.25186360      12.60859299     -26.66148186   -1280.15979004
14
Properties=species:S:1:pos:R:3:forces:R:3:energies:R:1 original_dataset_index=13 energy=-17974.1484375 pbc="F F F"
C       -1.80044997       0.42166799       3.15300012     -37.25087357       3.59660316      -2.39508748   -1292.36486816
H       -2.78552008      -0.14237200       3.18881011      20.87795258      -2.26227903     -16.89072227   -1281.26184082
H       -2.04324007       1.22221005       3.82435989       4.48217440      20.67068672      29.67799377   -1280.65771484
H       -0.96666598      -0.15539600       3.46515012      18.05984306     -27.89116478      32.37223434   -1280.13171387
C       -1.30958998       1.01605999       1.85984004     -36.32309723      37.87322998     -18.31051254   -1292.86145020
H       -1.10462999       2.10203004       1.93236995      -4.13962555       9.81480980      12.33005619   -1280.22631836
H       -0.30256999       0.70043999       1.66362000      20.89439583     -25.54788589     -17.71461105   -1279.94018555
C       -2.28954005       0.91710401       0.68304700      -7.07536507     -61.81134796     -22.11749458   -1289.55175781
H       -3.25798011       1.55291998       0.84507102      38.37501144      -8.61387634     -15.77885723   -1281.28686523
H       -2.72046995      -0.15783200       0.64622498       7.11792803      22.37415504      11.25419807   -1280.29626465
C       -1.45095003       0.93119901      -0.66811800      25.04271889      69.62043762      29.15696716   -1292.39465332
H       -1.98392999       0.54161400      -1.53233004      -0.26484209     -16.61336327     -10.06446552   -1281.96386719
H       -1.29575002       2.04329991      -0.92253900      -0.03042822     -20.01086807       0.32269329   -1280.86450195
H       -0.33260000       0.58845299      -0.47844100     -49.76578522      -1.19913280     -11.84240246   -1280.34753418
14
Properties=species:S:1:pos:R:3:forces:R:3:energies:R:1 original_dataset_index=14 energy=-17971.9375 pbc="F F F"
C       -3.32096004       0.90248102       2.29001999     -72.07087708     -10.57574558     -19.22022247   -1290.73474121
H       -3.29641008       1.28496003       3.27751994      -0.13541700      -5.00319958      49.82984924   -1280.48022461
H       -4.36582994       0.43685701       2.03059006      39.94565964      -0.33346543      16.41785431   -1280.65307617
H       -3.44917011       1.83545005       1.80930996      -5.96130514      43.71760178     -30.74097824   -1278.70617676
C       -2.06778002       0.31373900       1.77173996      -1.44880462      -9.98039436      -8.01176071   -1294.43005371
H       -1.35672998       0.13737801       2.54883003      19.45142174     -16.47545242      28.46203423   -1280.52539062
H       -2.25366998      -0.58049101       1.22217000      -5.16832638     -40.11178589      -7.84466600   -1280.48303223
C       -1.39291000       1.19915998       0.82023299      10.10453701      95.87936401     -72.18074799   -1290.63989258
H       -1.32913005       2.31118989       1.21642005       8.59665871     -38.03954697       0.78635377   -1279.44104004
H       -1.96029997       1.49284995      -0.13134800     -13.30150986     -16.29326630      19.88855743   -1279.72290039
C       -0.05609780       0.78944099       0.19621600       6.23539925      22.52908325     -27.46980095   -1293.43652344
H        0.59537703       0.46252900       0.96626502      29.08250427     -30.68548584      24.67578697   -1280.81054688
H       -0.00989965       0.18251500      -0.76666498     -12.29254436      -3.96616268      27.11650085   -1281.44860840
H        0.48028499       1.69897997      -0.14138500      -3.03738523       9.33845139      -1.70876014   -1280.42651367
14
Properties=species:S:1:pos:R:3:forces:R:3:energies:R:1 original_dataset_index=15 energy=-17981.931640625 pbc="F F F"
C       -3.40213990       0.14509900       2.03254008      26.29550743      18.24728394     -56.30390930   -1293.56286621
H       -4.36870003       0.10028700       1.54701996     -19.47203827      -2.74413538      -2.17714071   -1281.68273926
H       -3.44117999       0.35312900       3.04841995     -12.66231728      16.48845482      62.20067215   -1280.35876465
H       -2.88081002      -0.77850902       1.97373998       5.78498507     -44.17390442      -6.07788658   -1280.12866211
C       -2.43738008       1.16646004       1.31175005      17.39782524     -50.84601212      74.03297424   -1291.52001953
H       -2.76971006       1.25663996       0.31591201      -9.86588955      17.74564743     -42.29214859   -1280.98828125
H       -2.54719996       2.03623009       1.97402000       9.55970383      20.96654320     -15.09767532   -1280.97082520
C       -0.97742301       0.56076598       1.31479001       5.81734180      41.56823349     -42.75428772   -1292.87097168
H       -0.96964300      -0.44766799       0.87532902      -7.94352818     -11.03129864       3.63749719   -1281.00573730
H       -0.38640100       0.55657500       2.25781012     -16.77947998      -4.81453943       6.67411327   -1281.05761719
C       -0.03907890       1.42782998       0.37090099       2.48172736      24.64129448      36.00129318   -1293.73217773
H       -0.43603399       1.82379997      -0.60099602      -3.98567247     -13.16420746       7.59876633   -1281.93725586
H        0.16852900       2.37575006       1.01383996       4.68979502     -23.35194778     -24.05413437   -1280.54699707
H        0.90311301       0.85102701       0.20087500      -1.31796110      10.46858311      -1.38814211   -1281.56750488
14
Properties=species:S:1:pos:R:3:forces:R:3:energies:R:1 original_dataset_index=16 energy=-17981.546875 pbc="F F F"
C       -1.63993001      -0.76945502       2.37336993     -30.37965775     -20.07800293     -15.69168758   -1294.02453613
H       -1.20773995      -1.48772001       1.59135997     -20.19928169      17.02992821       7.92850351   -1281.23156738
H       -2.49341989      -1.22941005       2.90942001       1.19203722     -16.26367188      -1.38722098   -1280.69091797
H       -0.86659402      -0.76071203       3.10720992      29.26633263      19.07723618      25.43641090   -1281.27209473
C       -2.23001003       0.55059999       1.82637000      33.83584213      10.70254230     -12.29351902   -1293.37890625