22
 Atoms. Timestep: 0
1 4.22228 2.74548 2.9792
2 3.34101 3.30169 2.6597
1 3.09631 4.03862 3.42466
1 2.58 2.55642 2.42832
3 3.73052 4.22012 1.52916
4 3.93655 5.39149 1.71322
5 3.51542 3.69342 0.261761
6 2.97612 2.86933 0.0378629
2 3.58708 4.34901 -1.03196
7 3.67072 3.58022 -1.80012
2 2.45983 5.23757 -1.23404
1 1.61614 4.55438 -1.33173
1 2.33965 5.76263 -0.28643
1 2.63635 5.88938 -2.08966
3 5.0795 4.87519 -1.37594
4 5.49859 4.74868 -2.57685
5 5.70322 5.46129 -0.379418
6 5.16066 5.71054 0.435201
2 7.00395 5.99814 -0.518708
7 7.44558 5.58042 -1.42346
7 6.90841 7.05845 -0.752636
7 7.5743 5.87287 0.401677
22
 Atoms. Timestep: 1
1 4.21382 2.73266 2.9733
2 3.34002 3.30422 2.66044
1 3.07014 4.03334 3.42441
1 2.59489 2.54252 2.4309
3 3.73069 4.21492 1.52345
4 3.939 5.38726 1.70773
5 3.51187 3.69177 0.259066
6 2.95221 2.87492 0.0599459
2 3.59148 4.35038 -1.03632
7 3.68704 3.58298 -1.80447
2 2.46233 5.23526 -1.22813
1 1.61329 4.55626 -1.30688
1 2.36098 5.75068 -0.273056
1 2.61702 5.90754 -2.07205
3 5.07436 4.87323 -1.36959
4 5.49604 4.75548 -2.57371
5 5.70793 5.46087 -0.380486
6 5.17021 5.71657 0.435345
2 7.00014 5.99956 -0.519169
7 7.45337 5.59806 -1.42552
7 6.92044 7.06214 -0.748711
7 7.59303 5.89852 0.389877
