ITEM: TIMESTEP
0
ITEM: NUMBER OF ATOMS
14
ITEM: BOX BOUNDS pp pp pp
-2.2206855000000001e+01 1.8793144999999999e+01
-1.9677098999999998e+01 2.1322901000000002e+01
-1.9241968000000000e+01 2.1758032000000000e+01
ITEM: ATOMS id type x y z fx fy fz
1 1 0.830114 -10.9165 7.56436 -27.42 13.8266 -21.3443
2 2 1.86647 -11.2433 7.39431 -4.72592 6.8106 -0.33681
3 2 0.276278 -10.9219 6.56204 19.3723 -0.389655 32.0054
4 2 0.366212 -11.6954 8.18048 1.18239 4.35862 -0.618385
5 1 0.701116 -9.49161 8.24125 -3.9784 -16.8251 -18.683
6 2 1.03531 -8.74707 7.51087 -5.60486 0.814237 2.86879
7 2 -0.324287 -9.25019 8.56756 5.48014 -4.05478 -7.89839
8 1 1.60706 -9.41606 9.42824 2.54151 -10.482 50.2357
9 2 2.62974 -9.47643 9.06892 3.4082 -12.3826 0.62661
10 2 1.36705 -10.2398 10.1789 10.8903 17.6001 -27.9602
11 1 1.62037 -8.13056 10.2751 -1.13659 0.727055 23.3698
12 2 0.676098 -7.85545 10.8189 13.3791 -10.2657 -18.8819
13 2 2.3409 -8.36824 11.1215 -13.8251 17.915 -25.3856
14 2 1.93447 -7.27056 9.64954 0.436953 -7.65227 12.0023
ITEM: TIMESTEP
1
ITEM: NUMBER OF ATOMS
14
ITEM: BOX BOUNDS pp pp pp
-2.2206855000000001e+01 1.8793144999999999e+01
-1.9677098999999998e+01 2.1322901000000002e+01
-1.9241968000000000e+01 2.1758032000000000e+01
ITEM: ATOMS id type x y z fx fy fz
1 1 0.829636 -10.9163 7.56399 -24.8042 14.1995 -16.6152
2 2 1.86548 -11.2419 7.39424 -4.20176 6.54955 -0.434014
3 2 0.280299 -10.922 6.56869 16.581 -0.396996 27.0877
4 2 0.366457 -11.6945 8.18035 0.990526 4.0045 -0.435004
5 1 0.701047 -9.49191 8.24092 -3.07347 -16.9241 -18.2484
6 2 1.03414 -8.7469 7.51147 -5.35669 1.015 2.55004
7 2 -0.32315 -9.25103 8.56592 4.47611 -3.83573 -7.47728
8 1 1.6071 -9.41625 9.42911 4.13239 -7.27803 45.8408
9 2 2.63045 -9.479 9.06905 2.76617 -12.0785 0.89081
10 2 1.36931 -10.2362 10.1731 9.69307 14.036 -24.39
11 1 1.62035 -8.13055 10.2755 -1.47111 -0.257347 19.1814
12 2 0.678875 -7.85758 10.815 10.692 -9.365 -17.0708
13 2 2.33803 -8.36452 11.1163 -11.1414 16.7823 -21.813
14 2 1.93456 -7.27215 9.65203 0.717338 -6.45127 10.9331
