ITEM: TIMESTEP
0
ITEM: NUMBER OF ATOMS
22
ITEM: BOX BOUNDS pp pp pp
-5.0000000000000000e+01 5.0000000000000000e+01
-5.0000000000000000e+01 5.0000000000000000e+01
-5.0000000000000000e+01 5.0000000000000000e+01
ITEM: ATOMS id type x y z fx fy fz
1 1 4.49449 5.58479 -3.92825 -17.1726 -4.8361 30.33
2 2 4.05697 6.18849 -3.13312 -48.6736 9.36583 2.93119
3 1 3.00503 6.45036 -3.24689 55.3689 -24.6435 2.51944
4 1 4.57465 7.11771 -3.37113 17.355 35.1308 4.12137
5 3 4.34497 5.81713 -1.63897 -26.6005 -26.4349 -92.4425
6 4 4.64397 6.70217 -0.84475 0.103524 -22.6525 16.4409
7 5 4.11417 4.47335 -1.56372 51.1742 38.4153 135.886
8 6 3.864 3.9925 -2.41595 -20.1056 -27.5667 -74.8771
9 2 4.18087 3.49314 -0.403231 32.1906 -89.9393 -52.5512
10 7 4.7423 2.60678 -0.698624 -55.9594 108.665 30.4148
11 2 2.72896 2.95899 -0.315466 -23.6282 38.2818 146.655
12 1 2.39305 2.62844 -1.29832 -13.9008 -3.57716 -22.8579
13 1 2.84629 2.07472 0.310949 -25.618 76.829 -49.0454
14 1 2.12854 3.7471 0.138938 71.3228 -111.474 -62.4339
15 3 4.68677 3.86964 1.0288 8.3196 -33.889 18.0544
16 4 5.02456 2.96177 1.82323 -2.49358 15.7823 -25.1599
17 5 4.7241 5.1191 1.44005 -15.2307 60.0055 6.73583
18 6 4.23787 5.81727 0.895775 10.9328 -12.2189 -5.85343
19 2 5.41991 5.68417 2.62207 125.034 87.5996 -99.0102
20 7 4.98317 5.34717 3.56217 -46.1599 -28.0371 83.3009
21 7 6.39865 5.20655 2.57687 -55.0472 35.669 8.66907
22 7 5.56005 6.76488 2.59902 -21.2114 -120.475 -1.8268
ITEM: TIMESTEP
1
ITEM: NUMBER OF ATOMS
22
ITEM: BOX BOUNDS pp pp pp
-5.0000000000000000e+01 5.0000000000000000e+01
-5.0000000000000000e+01 5.0000000000000000e+01
-5.0000000000000000e+01 5.0000000000000000e+01
ITEM: ATOMS id type x y z fx fy fz
1 1 4.46666 5.58014 -3.93335 -4.83327 -17.4006 15.9149
2 2 4.0554 6.19179 -3.13032 11.7169 33.8878 7.27972
3 1 2.99941 6.42343 -3.26938 2.58058 -7.12427 1.266
4 1 4.59479 7.10897 -3.36688 -1.92497 5.7233 11.1989
5 3 4.34551 5.81254 -1.64513 -27.2355 -23.888 -85.1921
6 4 4.64621 6.69737 -0.85017 0.562132 -23.3715 15.8779
7 5 4.11128 4.47154 -1.56462 27.506 -0.160917 58.2205
8 6 3.83862 4.00202 -2.41627 2.18074 11.9008 -0.45867
9 2 4.1831 3.49446 -0.407001 -30.0511 8.77088 -13.7379
10 7 4.75522 2.61824 -0.711988 6.19295 7.65693 -1.61172
11 2 2.73305 2.95822 -0.308248 33.4336 -1.00074 6.67226
12 1 2.37312 2.61459 -1.27803 -2.35254 5.68357 2.80733
13 1 2.86227 2.08065 0.325218 -15.8312 0.460613 4.40109
14 1 2.12395 3.73789 0.149136 -6.51597 -6.503 -2.07287
15 3 4.68314 3.86722 1.03624 6.60365 -23.6858 3.00289
16 4 5.02204 2.9687 1.8253 -0.419656 7.10584 -18.0526
17 5 4.72931 5.11909 1.43786 -10.1987 54.5044 17.5861
18 6 4.23785 5.82726 0.911477 4.27914 -6.33134 -15.8205
19 2 5.41699 5.68738 2.62019 15.0821 -30.846 -4.8677
20 7 4.98448 5.35459 3.56374 -7.12506 2.39271 -2.61896
21 7 6.39919 5.21634 2.58159 4.5298 4.49022 5.41866
22 7 5.57995 6.76491 2.59816 -8.17964 -2.26486 -5.21325
