22
 Atoms. Timestep: 0
1 5.56884 3.70882 -3.96296
2 5.38421 4.52511 -3.26462
1 4.53811 5.0982 -3.64381
1 6.20507 5.23507 -3.1634
3 5.08831 4.01952 -1.98469
4 5.8221 3.16365 -1.63657
5 4.21552 4.62989 -1.22344
6 3.75083 5.37497 -1.72247
2 3.39947 4.28011 0.01767
7 2.38402 4.1377 -0.352038
2 3.76308 2.91918 0.545955
1 4.66967 3.02767 1.14129
1 2.85822 2.6216 1.07584
1 3.9076 2.2162 -0.274431
3 3.53933 5.40834 1.08434
4 2.63939 5.69612 1.88733
5 4.74776 5.90482 1.28136
6 5.48063 5.71774 0.61203
2 5.19232 6.75651 2.3195
7 4.61605 7.68148 2.29845
7 5.15749 6.30467 3.31083
7 6.21532 7.10726 2.1833
22
 Atoms. Timestep: 1
1 5.54425 3.71259 -3.9678
2 5.38295 4.52883 -3.26364
1 4.52679 5.07166 -3.66417
1 6.22194 5.21705 -3.16097
3 5.08962 4.01516 -1.98858
4 5.82452 3.1586 -1.64183
5 4.21053 4.62842 -1.22647
6 3.73604 5.38271 -1.70189
2 3.40269 4.28336 0.0142221
7 2.39602 4.12822 -0.37391
2 3.76685 2.91912 0.551734
1 4.65849 3.01345 1.17156
1 2.8798 2.60913 1.10415
1 3.89168 2.21365 -0.269749
3 3.53522 5.40613 1.09209
4 2.63688 5.70275 1.88944
5 4.75263 5.90419 1.27952
6 5.49104 5.72371 0.614477
2 5.1898 6.75984 2.31975
7 4.62656 7.69234 2.28358
7 5.16795 6.30697 3.31098
7 6.2097 7.12018 2.1854
