ITEM: TIMESTEP
0
ITEM: NUMBER OF ATOMS
22
ITEM: BOX BOUNDS pp pp pp
-5.0000000000000000e+01 5.0000000000000000e+01
-5.0000000000000000e+01 5.0000000000000000e+01
-5.0000000000000000e+01 5.0000000000000000e+01
ITEM: ATOMS id type x y z fx fy fz
1 1 1.24295 4.30155 -0.30073 -8.91953 42.9363 29.0379
2 2 1.17829 5.19119 0.325734 55.07 -127.129 7.85721
3 1 0.670521 4.90159 1.24573 -34.2824 -2.68454 20.1411
4 1 0.720838 5.98016 -0.271234 -35.1906 76.9101 -41.4654
5 3 2.53305 5.47875 0.87928 2.48138 20.3179 -19.5946
6 4 2.73211 6.3653 1.69278 -1.00174 -1.19705 3.5726
7 5 3.47075 4.74504 0.329829 101.737 32.4898 57.0834
8 6 3.2576 4.05399 -0.375238 -43.3076 -59.0219 -62.7279
9 2 4.97572 4.77753 0.554265 -52.7021 18.1761 -34.9135
10 7 5.20502 5.81303 0.805764 12.1848 52.8681 20.271
11 2 5.326 3.9453 1.7251 -17.3204 -18.1735 141.148
12 1 4.58681 3.14811 1.80373 99.9618 65.1451 -10.4605
13 1 6.40975 3.82954 1.73901 -90.1327 -14.1754 -1.36777
14 1 5.13069 4.51645 2.6327 21.0325 -61.8222 -106.959
15 3 5.82021 4.59859 -0.730986 -47.017 -53.189 -24.6266
16 4 6.88156 5.16402 -0.928636 8.31999 4.08415 3.82732
17 5 5.22063 3.76915 -1.6598 4.7134 4.32364 13.12
18 6 4.33956 3.33509 -1.42442 24.9753 11.6709 -4.39054
19 2 5.80003 3.42133 -2.97415 125.391 131.095 -3.2113
20 7 6.66279 2.76551 -2.85729 -18.4964 7.62626 4.54129
21 7 5.08746 2.89186 -3.6066 -36.0408 -16.6742 -34.5254
22 7 6.26674 4.31409 -3.3904 -71.4566 -113.576 43.6423
ITEM: TIMESTEP
1
ITEM: NUMBER OF ATOMS
22
ITEM: BOX BOUNDS pp pp pp
-5.0000000000000000e+01 5.0000000000000000e+01
-5.0000000000000000e+01 5.0000000000000000e+01
-5.0000000000000000e+01 5.0000000000000000e+01
ITEM: ATOMS id type x y z fx fy fz
1 1 1.21683 4.30681 -0.306097 -1.55329 0.830734 -0.616091
2 2 1.17853 5.19212 0.328616 -11.4532 -27.9024 9.64726
3 1 0.646299 4.87921 1.2269 -14.6198 9.66072 -7.78948
4 1 0.730068 5.98008 -0.276444 4.14287 8.47291 11.7005
5 3 2.53409 5.47497 0.874386 1.80706 22.5387 -13.73
6 4 2.73434 6.36078 1.68719 -0.546483 -0.631034 3.99126
7 5 3.46861 4.74314 0.327751 78.3882 -32.5123 -11.3709
8 6 3.22741 4.05698 -0.373035 -17.716 5.31092 3.78403
9 2 4.97647 4.78073 0.550802 -40.0561 62.0918 -14.752
10 7 5.23209 5.81291 0.790294 -3.14519 0.908825 8.86624
11 2 5.3302 3.94354 1.73222 -6.5511 11.6893 23.2798
12 1 4.59051 3.14852 1.82659 21.0013 -18.9358 -3.80616
13 1 6.41234 3.81658 1.76317 -4.28241 -21.1396 -0.899796
14 1 5.11566 4.51755 2.63366 0.387066 4.91904 -1.46539
15 3 5.81561 4.59583 -0.724293 -32.441 -49.2492 -36.4457
16 4 6.87918 5.1708 -0.926183 1.7056 0.18379 5.97594
17 5 5.22613 3.76831 -1.66189 20.8915 17.613 19.7377
18 6 4.34246 3.35003 -1.40841 3.11846 -1.67097 -2.86037
19 2 5.79711 3.4253 -2.97436 19.9574 0.826168 12.5193
20 7 6.66984 2.78034 -2.87206 -4.07638 -5.26686 8.28912
21 7 5.09194 2.89078 -3.61085 -1.76312 10.0391 -3.19689
22 7 6.27621 4.31555 -3.38182 -13.1954 2.22299 -10.8585
