ITEM: TIMESTEP
0
ITEM: NUMBER OF ATOMS
14
ITEM: BOX BOUNDS pp pp pp
-2.2206855000000001e+01 1.8793144999999999e+01
-1.9677098999999998e+01 2.1322901000000002e+01
-1.9241968000000000e+01 2.1758032000000000e+01
ITEM: ATOMS id type x y z fx fy fz
1 1 -6.88362 -2.01709 7.34781 -47.3945 -28.5844 -40.9594
2 2 -6.65734 -2.42992 6.28827 2.18321 10.2632 47.9344
3 2 -7.61359 -1.21289 7.02024 20.552 -14.1001 23.6113
4 2 -7.43785 -2.8583 7.91796 18.4645 35.6741 -22.1311
5 1 -5.64285 -1.57526 8.13024 30.0515 32.4552 -55.5363
6 2 -5.15298 -2.53902 8.30097 11.76 10.5001 9.00428
7 2 -5.00063 -0.894508 7.42081 -27.4723 -40.1025 30.4824
8 1 -5.8769 -0.712256 9.37014 -74.4558 -39.006 -0.413632
9 2 -6.40808 -1.35125 10.1437 26.6457 13.8094 -14.8496
10 2 -6.75055 -0.066171 9.11549 26.8645 9.11138 6.5344
11 1 -4.60148 -0.099026 9.85632 6.60761 17.3635 21.9053
12 2 -4.31264 0.839244 9.34574 -2.2465 -13.2494 -1.53732
13 2 -4.74402 0.173017 10.9159 5.15466 -3.1591 -7.66815
14 2 -3.82142 -0.866131 9.77621 3.28535 9.02452 3.62345
ITEM: TIMESTEP
1
ITEM: NUMBER OF ATOMS
14
ITEM: BOX BOUNDS pp pp pp
-2.2206855000000001e+01 1.8793144999999999e+01
-1.9677098999999998e+01 2.1322901000000002e+01
-1.9241968000000000e+01 2.1758032000000000e+01
ITEM: ATOMS id type x y z fx fy fz
1 1 -6.88444 -2.01759 7.3471 -41.354 -23.9447 -35.7603
2 2 -6.65689 -2.42779 6.29822 3.0518 7.87181 41.3357
3 2 -7.60932 -1.21582 7.02514 17.582 -11.2476 21.871
4 2 -7.43401 -2.85089 7.91336 15.2323 30.748 -18.897
5 1 -5.64233 -1.5747 8.12927 24.4314 27.0268 -49.8241
6 2 -5.15054 -2.53684 8.30284 11.5442 10.3107 8.72819
7 2 -5.00633 -0.902831 7.42714 -22.7497 -34.8235 25.2418
8 1 -5.8782 -0.712936 9.37013 -67.9257 -36.6223 -2.69995
9 2 -6.40255 -1.34838 10.1406 23.8348 11.074 -11.8359
10 2 -6.74498 -0.06428 9.11685 24.2695 10.0567 5.90036
11 1 -4.60136 -0.0987233 9.8567 5.55081 15.3614 20.761
12 2 -4.31311 0.836494 9.34542 -1.88014 -11.7541 -2.11747
13 2 -4.74295 0.172361 10.9143 4.9248 -2.61603 -6.24035
14 2 -3.82074 -0.864258 9.77697 3.48788 8.55867 3.53703
