ITEM: TIMESTEP
0
ITEM: NUMBER OF ATOMS
22
ITEM: BOX BOUNDS pp pp pp
-5.0000000000000000e+01 5.0000000000000000e+01
-5.0000000000000000e+01 5.0000000000000000e+01
-5.0000000000000000e+01 5.0000000000000000e+01
ITEM: ATOMS id type x y z fx fy fz
1 1 0.717043 5.84323 0.313611 14.877 -35.4311 10.1883
2 2 1.27377 4.91315 0.428055 -88.9713 -72.746 -118.628
3 1 1.16062 4.3651 -0.507328 33.8713 82.3943 137.634
4 1 0.881021 4.24922 1.19815 2.34378 24.6448 -20.5315
5 3 2.61416 5.27927 0.890308 -14.4934 -16.6949 46.1001
6 4 2.80717 5.37394 2.11596 17.9139 9.54149 -29.3717
7 5 3.42787 5.33193 -0.104938 120.908 37.9385 28.6058
8 6 3.01418 5.00919 -0.967956 -24.1131 -13.6729 -52.4036
9 2 4.93525 5.69196 -0.236611 -102.55 -17.634 -12.2422
10 7 4.87112 6.54505 -0.912054 14.5442 11.4622 2.76797
11 2 5.6622 6.05 1.03648 -42.6161 -62.6164 116.37
12 1 5.22617 6.91345 1.53891 12.1963 -38.7567 -14.9683
13 1 5.97283 5.21657 1.66656 -56.454 72.265 -52.0166
14 1 6.69742 6.30257 0.807059 91.6166 37.3355 -33.606
15 3 5.51058 4.57778 -1.05865 54.0119 -30.6027 -3.062
16 4 5.52165 4.60834 -2.28254 -18.5897 17.7199 -6.53914
17 5 6.10438 3.52599 -0.454987 -1.92915 7.13157 50.2655
18 6 6.37621 3.64856 0.509992 -25.3058 -27.6582 -76.5754
19 2 6.07169 2.21641 -1.21548 61.9989 106.629 -62.5874
20 7 5.25112 2.30292 -1.92772 -10.8692 -17.8385 4.21285
21 7 6.9291 2.18685 -1.88784 -32.3167 -5.62109 38.281
22 7 6.01596 1.36887 -0.53235 -6.07285 -67.7897 48.1059
ITEM: TIMESTEP
1
ITEM: NUMBER OF ATOMS
22
ITEM: BOX BOUNDS pp pp pp
-5.0000000000000000e+01 5.0000000000000000e+01
-5.0000000000000000e+01 5.0000000000000000e+01
-5.0000000000000000e+01 5.0000000000000000e+01
ITEM: ATOMS id type x y z fx fy fz
1 1 0.695863 5.83223 0.304332 -3.17262 -1.02289 8.27878
2 2 1.2715 4.91502 0.428734 -41.6947 -9.16672 1.97926
3 1 1.15054 4.36038 -0.501774 18.0692 0.16548 -2.958
4 1 0.898042 4.2383 1.19728 -10.6218 6.56665 1.75265
5 3 2.61491 5.27485 0.886558 -15.3377 -13.5632 46.6851
6 4 2.80964 5.36956 2.10994 18.4327 9.26631 -27.1521
7 5 3.42602 5.33012 -0.107441 92.2353 20.0083 -25.8869
8 6 2.98797 5.02159 -0.96361 5.69977 6.41316 -0.67957
9 2 4.93513 5.69454 -0.239679 -98.2732 -14.2626 -13.0929
10 7 4.89867 6.53634 -0.931156 12.1014 5.49809 10.5987
11 2 5.66596 6.04747 1.04317 37.0749 9.84033 17.2802
12 1 5.21166 6.8923 1.56084 -3.6418 -6.17805 2.1576
13 1 5.98241 5.22155 1.68021 -27.0279 -8.06285 4.39651
14 1 6.69704 6.32425 0.823239 -5.10721 12.9364 -12.9764
15 3 5.50774 4.57542 -1.05158 54.3799 -28.3607 -14.2089
16 4 5.51892 4.6153 -2.28022 -18.1192 15.5278 -1.01238
17 5 6.10979 3.5252 -0.456526 -26.6625 2.74267 -23.8707
18 6 6.36867 3.65534 0.511017 -2.4619 -20.4535 0.684876
19 2 6.06767 2.21996 -1.21673 21.4558 40.3896 18.1989
20 7 5.25976 2.31246 -1.94256 -7.42394 -20.2806 9.73691
21 7 6.93436 2.18807 -1.87698 5.27923 -6.34799 7.67392
22 7 6.039 1.37983 -0.522844 -5.18388 -1.65571 -7.58561
