ITEM: TIMESTEP
0
ITEM: NUMBER OF ATOMS
22
ITEM: BOX BOUNDS pp pp pp
-5.0000000000000000e+01 5.0000000000000000e+01
-5.0000000000000000e+01 5.0000000000000000e+01
-5.0000000000000000e+01 5.0000000000000000e+01
ITEM: ATOMS id type x y z fx fy fz
1 1 2.68588 5.34163 -3.83364 9.44989 -27.0556 32.1774
2 2 2.84807 4.60768 -3.04427 29.0726 -92.6668 -135.69
3 1 2.85387 3.62689 -3.51979 13.4115 132.298 72.4702
4 1 1.98877 4.65991 -2.37571 -46.504 1.53243 34.2972
5 3 4.07147 5.0111 -2.22582 -36.1652 -55.6945 -0.324708
6 4 4.67449 6.01384 -2.49542 2.14912 21.6479 -21.7922
7 5 4.31564 4.1503 -1.21614 36.6451 58.3096 -0.763093
8 6 3.86617 3.24635 -1.24691 -21.2097 -27.2254 -0.139801
9 2 5.22962 4.38225 -0.069112 23.4807 -215.94 -31.73
10 7 5.88033 3.51955 -0.212027 -64.2072 91.9409 25.5512
11 2 6.12955 5.47967 -0.219416 -58.3557 127.977 20.9534
12 1 6.66385 5.64682 0.715828 -3.8857 -2.5741 -27.486
13 1 6.72073 5.31667 -1.12054 23.4475 -0.423089 -9.88339
14 1 5.4202 6.27993 -0.43037 85.0955 -53.8862 41.5522
15 3 4.52261 4.07165 1.28259 2.02381 68.5274 23.3075
16 4 4.47684 2.95538 1.86052 3.7285 25.5678 -26.746
17 5 4.07514 5.25409 1.84598 -13.1252 -11.5005 32.4499
18 6 4.11791 6.15782 1.39705 7.88631 -26.6365 -12.7633
19 2 3.67665 5.38395 3.27514 115.095 55.5701 -22.7453
20 7 3.49372 4.37891 3.65532 -19.1589 -74.441 33.1569
21 7 4.54171 5.77179 3.81305 -55.8806 -19.8181 -28.4798
22 7 2.80019 6.0151 3.42197 -32.9938 24.4902 2.62815
ITEM: TIMESTEP
1
ITEM: NUMBER OF ATOMS
22
ITEM: BOX BOUNDS pp pp pp
-5.0000000000000000e+01 5.0000000000000000e+01
-5.0000000000000000e+01 5.0000000000000000e+01
-5.0000000000000000e+01 5.0000000000000000e+01
ITEM: ATOMS id type x y z fx fy fz
1 1 2.66357 5.33236 -3.83836 4.7417 4.33194 2.82461
2 2 2.84786 4.60921 -3.04389 -17.2328 11.2037 -6.14256
3 1 2.83955 3.63253 -3.52776 16.3275 -3.05672 8.14637
4 1 1.99565 4.64419 -2.3652 -0.947134 0.0535763 -1.45681
5 3 4.07184 5.006 -2.23038 -32.7037 -50.2272 -1.21787
6 4 4.67676 6.00962 -2.50134 3.38694 19.4789 -17.6887
7 5 4.31253 4.14879 -1.21908 20.7824 24.0015 1.25893
8 6 3.84056 3.25594 -1.23172 -3.29124 7.04322 0.356112
9 2 5.2317 4.38137 -0.0725197 -50.6412 -121.333 -12.6409
10 7 5.89154 3.52754 -0.226401 5.60242 -3.91644 11.2857
11 2 6.13303 5.48046 -0.214387 6.2298 43.8195 5.4156
12 1 6.646 5.63318 0.735159 10.2859 1.43138 -6.40396
13 1 6.7469 5.30657 -1.09815 7.93785 5.60238 8.11879
14 1 5.41846 6.28268 -0.398592 18.3794 19.865 13.9292
15 3 4.51887 4.07101 1.29012 11.0582 73.4671 4.34445
16 4 4.4744 2.96244 1.86257 2.54199 16.5267 -21.0463
17 5 4.08038 5.25302 1.84417 -21.1078 -16.8898 51.3684
18 6 4.11726 6.16481 1.41132 10.2568 -15.0733 -23.4135
19 2 3.67355 5.38661 3.27459 18.5761 -17.6193 -23.3731
20 7 3.50064 4.37671 3.64649 -8.25389 3.47466 6.0829
21 7 4.54207 5.77006 3.81006 -3.84302 2.67361 3.72415
22 7 2.81764 6.04522 3.42204 1.91385 -4.85756 -3.4714
