22
 Atoms. Timestep: 0
1 2.68588 5.34163 -3.83364
2 2.84807 4.60768 -3.04427
1 2.85387 3.62689 -3.51979
1 1.98877 4.65991 -2.37571
3 4.07147 5.0111 -2.22582
4 4.67449 6.01384 -2.49542
5 4.31564 4.1503 -1.21614
6 3.86617 3.24635 -1.24691
2 5.22962 4.38225 -0.069112
7 5.88033 3.51955 -0.212027
2 6.12955 5.47967 -0.219416
1 6.66385 5.64682 0.715828
1 6.72073 5.31667 -1.12054
1 5.4202 6.27993 -0.43037
3 4.52261 4.07165 1.28259
4 4.47684 2.95538 1.86052
5 4.07514 5.25409 1.84598
6 4.11791 6.15782 1.39705
2 3.67665 5.38395 3.27514
7 3.49372 4.37891 3.65532
7 4.54171 5.77179 3.81305
7 2.80019 6.0151 3.42197
22
 Atoms. Timestep: 1
1 2.66357 5.33236 -3.83836
2 2.84786 4.60921 -3.04389
1 2.83955 3.63253 -3.52776
1 1.99565 4.64419 -2.3652
3 4.07184 5.006 -2.23038
4 4.67676 6.00962 -2.50134
5 4.31253 4.14879 -1.21908
6 3.84056 3.25594 -1.23172
2 5.2317 4.38137 -0.0725197
7 5.89154 3.52754 -0.226401
2 6.13303 5.48046 -0.214387
1 6.646 5.63318 0.735159
1 6.7469 5.30657 -1.09815
1 5.41846 6.28268 -0.398592
3 4.51887 4.07101 1.29012
4 4.4744 2.96244 1.86257
5 4.08038 5.25302 1.84417
6 4.11726 6.16481 1.41132
2 3.67355 5.38661 3.27459
7 3.50064 4.37671 3.64649
7 4.54207 5.77006 3.81006
7 2.81764 6.04522 3.42204
