ITEM: TIMESTEP
0
ITEM: NUMBER OF ATOMS
14
ITEM: BOX BOUNDS pp pp pp
-2.2206855000000001e+01 1.8793144999999999e+01
-1.9677098999999998e+01 2.1322901000000002e+01
-1.9241968000000000e+01 2.1758032000000000e+01
ITEM: ATOMS id type x y z fx fy fz
1 1 2.26597 -10.8078 4.55893 31.2681 -3.53142 53.9438
2 2 1.61362 -11.1533 5.44223 21.7141 9.69154 -34.3017
3 2 1.88556 -11.0851 3.60934 -7.02722 -18.0222 -14.8529
4 2 2.20006 -9.73104 4.51066 -5.60397 6.87808 3.05266
5 1 3.82907 -11.1068 4.78345 34.7649 16.8476 -0.381163
6 2 4.15912 -12.064 5.21202 -30.2014 -4.92201 -3.70319
7 2 4.47989 -11.1364 3.84147 -36.4537 7.67205 19.6227
8 1 4.58465 -10.0877 5.74469 14.2724 -23.0074 25.3376
9 2 4.35579 -10.0441 6.87051 -12.6367 -7.42095 -43.3081
10 2 4.56464 -9.07615 5.36666 -4.91804 6.46284 -2.86284
11 1 6.06887 -10.5447 5.7864 13.6639 2.75533 -56.7205
12 2 6.1445 -11.6366 5.97806 1.56122 14.2577 -1.12139
13 2 6.58154 -10.3142 4.75592 -23.2383 -12.7836 50.165
14 2 6.63274 -10.0379 6.55462 2.83476 5.12238 5.13003
ITEM: TIMESTEP
1
ITEM: NUMBER OF ATOMS
14
ITEM: BOX BOUNDS pp pp pp
-2.2206855000000001e+01 1.8793144999999999e+01
-1.9677098999999998e+01 2.1322901000000002e+01
-1.9241968000000000e+01 2.1758032000000000e+01
ITEM: ATOMS id type x y z fx fy fz
1 1 2.26652 -10.8078 4.55987 32.9998 -1.50546 45.8138
2 2 1.61813 -11.1513 5.43512 18.4589 7.85156 -29.4102
3 2 1.8841 -11.0889 3.60626 -5.65493 -16.8679 -11.6953
4 2 2.1989 -9.72961 4.51129 -5.46795 5.78539 3.01871
5 1 3.82967 -11.1065 4.78344 29.9135 17.2816 3.5334
6 2 4.15286 -12.065 5.21125 -29.0193 -5.1843 -3.50409
7 2 4.47233 -11.1349 3.84554 -32.9118 7.35209 15.5358
8 1 4.5849 -10.0881 5.74514 15.1017 -22.1017 18.7474
9 2 4.35317 -10.0457 6.86153 -13.4013 -7.13601 -37.5256
10 2 4.56362 -9.07481 5.36607 -4.80858 5.21346 -2.28283
11 1 6.06911 -10.5447 5.78542 10.5469 3.51874 -47.8556
12 2 6.14482 -11.6336 5.97783 1.60687 12.4032 -0.936912
13 2 6.57672 -10.3169 4.76633 -19.5099 -11.0775 42.5231
14 2 6.63333 -10.0369 6.55568 2.14602 4.46685 4.03833
