14
 Atoms. Timestep: 0
1 2.26597 -10.8078 4.55893
2 1.61362 -11.1533 5.44223
2 1.88556 -11.0851 3.60934
2 2.20006 -9.73104 4.51066
1 3.82907 -11.1068 4.78345
2 4.15912 -12.064 5.21202
2 4.47989 -11.1364 3.84147
1 4.58465 -10.0877 5.74469
2 4.35579 -10.0441 6.87051
2 4.56464 -9.07615 5.36666
1 6.06887 -10.5447 5.7864
2 6.1445 -11.6366 5.97806
2 6.58154 -10.3142 4.75592
2 6.63274 -10.0379 6.55462
14
 Atoms. Timestep: 1
1 2.26652 -10.8078 4.55987
2 1.61813 -11.1513 5.43512
2 1.8841 -11.0889 3.60626
2 2.1989 -9.72961 4.51129
1 3.82967 -11.1065 4.78344
2 4.15286 -12.065 5.21125
2 4.47233 -11.1349 3.84554
1 4.5849 -10.0881 5.74514
2 4.35317 -10.0457 6.86153
2 4.56362 -9.07481 5.36607
1 6.06911 -10.5447 5.78542
2 6.14482 -11.6336 5.97783
2 6.57672 -10.3169 4.76633
2 6.63333 -10.0369 6.55568
