ITEM: TIMESTEP
0
ITEM: NUMBER OF ATOMS
14
ITEM: BOX BOUNDS pp pp pp
-2.2206855000000001e+01 1.8793144999999999e+01
-1.9677098999999998e+01 2.1322901000000002e+01
-1.9241968000000000e+01 2.1758032000000000e+01
ITEM: ATOMS id type x y z fx fy fz
1 1 -0.183138 -0.856183 3.13249 31.2043 64.7289 37.9186
2 2 -0.238819 -1.83331 3.59902 -6.24516 -6.394 -4.70294
3 2 -0.19806 -0.096295 4.05208 12.0204 -45.4454 -52.8197
4 2 0.844881 -0.782932 2.57381 -51.1905 -0.33709 22.9971
5 1 -1.43364 -0.398249 2.32803 -28.8505 -0.948029 1.46361
6 2 -1.3096 0.66926 2.01545 6.3019 -22.6582 -5.84246
7 2 -1.59847 -1.06344 1.44183 6.04945 14.0364 13.7727
8 1 -2.78299 -0.305966 3.17687 44.02 20.0017 12.7523
9 2 -2.65355 0.670455 3.77637 -14.3666 -37.4745 -17.2529
10 2 -2.89884 -1.14603 3.86692 5.34275 2.9029 1.51277
11 1 -4.01571 -0.299363 2.2942 10.0529 24.8276 -36.0091
12 2 -4.20189 -1.25531 1.78308 -1.26212 2.58178 9.60458
13 2 -4.90902 0.079951 2.80284 1.88997 -4.60006 -1.33462
14 2 -3.74767 0.400601 1.45431 -14.9669 -11.2218 17.94
ITEM: TIMESTEP
1
ITEM: NUMBER OF ATOMS
14
ITEM: BOX BOUNDS pp pp pp
-2.2206855000000001e+01 1.8793144999999999e+01
-1.9677098999999998e+01 2.1322901000000002e+01
-1.9241968000000000e+01 2.1758032000000000e+01
ITEM: ATOMS id type x y z fx fy fz
1 1 -0.182594 -0.855055 3.13315 23.5868 56.1916 33.428
2 2 -0.240115 -1.83464 3.59804 -5.9468 -5.31994 -5.01477
3 2 -0.195565 -0.105727 4.04112 11.8405 -38.6414 -44.6049
4 2 0.834257 -0.783002 2.57858 -44.0863 0.157197 19.2642
5 1 -1.43414 -0.398266 2.32806 -27.3813 -1.49168 4.41375
6 2 -1.30829 0.664558 2.01423 6.33284 -20.0648 -6.38661
7 2 -1.59722 -1.06053 1.44469 5.51537 12.1755 11.6275
8 1 -2.78222 -0.305617 3.17709 42.1676 14.9345 9.24557
9 2 -2.65654 0.662678 3.77279 -13.3722 -32.1255 -14.0915
10 2 -2.89773 -1.14543 3.86723 5.27788 2.76155 1.51495
11 1 -4.01553 -0.29893 2.29357 9.61429 22.8244 -32.2657
12 2 -4.20215 -1.25477 1.78508 -1.28142 1.94547 9.03276
13 2 -4.90863 0.0789963 2.80256 1.66511 -4.42682 -1.13952
14 2 -3.75078 0.398272 1.45803 -13.9324 -8.92001 14.9763
