ITEM: TIMESTEP
0
ITEM: NUMBER OF ATOMS
14
ITEM: BOX BOUNDS pp pp pp
-2.2206855000000001e+01 1.8793144999999999e+01
-1.9677098999999998e+01 2.1322901000000002e+01
-1.9241968000000000e+01 2.1758032000000000e+01
ITEM: ATOMS id type x y z fx fy fz
1 1 -4.30978 -0.25979 6.68966 -20.2098 -10.7851 50.3358
2 2 -3.29793 -0.4193 7.17455 -24.7017 3.78177 -15.7097
3 2 -5.0064 -1.07495 7.10104 26.3609 23.7886 -18.7688
4 2 -4.73113 0.685573 7.16338 12.6597 -22.031 -23.3093
5 1 -4.22907 -0.282625 5.14827 21.3531 -31.2476 -13.8835
6 2 -3.7174 0.624813 4.83931 4.75971 -0.155209 -2.09004
7 2 -3.59375 -1.19412 4.83262 -21.381 37.0231 10.5137
8 1 -5.5694 -0.35665 4.38248 -17.9633 -2.28241 -24.0924
9 2 -6.3121 0.326576 4.82145 6.18258 -2.98826 -1.84222
10 2 -5.99802 -1.38773 4.45643 7.21571 18.3983 6.1937
11 1 -5.46692 -0.082011 2.81498 28.4008 -29.1415 14.5111
12 2 -4.80364 -0.961046 2.47683 -23.9412 36.6888 0.25687
13 2 -6.4606 -0.1824 2.33405 11.6571 1.53064 4.23634
14 2 -4.99837 0.894544 2.4896 -10.3927 -22.5802 13.6486
ITEM: TIMESTEP
1
ITEM: NUMBER OF ATOMS
14
ITEM: BOX BOUNDS pp pp pp
-2.2206855000000001e+01 1.8793144999999999e+01
-1.9677098999999998e+01 2.1322901000000002e+01
-1.9241968000000000e+01 2.1758032000000000e+01
ITEM: ATOMS id type x y z fx fy fz
1 1 -4.31014 -0.259978 6.69054 -18.2291 -9.92459 42.9785
2 2 -3.30305 -0.418515 7.17129 -21.0628 3.22806 -13.684
3 2 -5.00092 -1.07002 7.09715 22.6718 19.6676 -16.3515
4 2 -4.7285 0.681001 7.15855 10.8297 -18.2126 -20.992
5 1 -4.2287 -0.28317 5.14803 17.605 -25.4696 -11.7653
6 2 -3.71642 0.624781 4.83887 4.47429 -0.563007 -1.92135
7 2 -3.59819 -1.18644 4.8348 -17.7738 31.705 8.72108
8 1 -5.56971 -0.35669 4.38206 -15.6177 -0.578539 -23.9192
9 2 -6.31082 0.325956 4.82107 5.49477 -2.36632 -1.54931
10 2 -5.99653 -1.38391 4.45771 6.05794 15.8351 6.19374
11 1 -5.46642 -0.082519 2.81523 24.3346 -27.1748 17.4283
12 2 -4.80861 -0.953432 2.47689 -20.2974 31.8277 -1.35071
13 2 -6.45818 -0.182082 2.33493 10.3793 1.41501 3.65225
14 2 -5.00053 0.889858 2.49244 -8.86662 -19.389 12.5596
