LAMMPS data file via write_data, version 23 Jun 2022, timestep = 5000000

14 atoms
2 atom types
13 bonds
2 bond types
24 angles
3 angle types
27 dihedrals
3 dihedral types

-20 20 xlo xhi
-20 20 ylo yhi
-20 20 zlo zhi

Masses

1 12
2 1.008

Pair Coeffs # lj/cut/coul/long

1 0.07 3.55
2 0.03 2.42

Bond Coeffs # harmonic

1 268 1.529
2 340 1.09

Angle Coeffs # harmonic

1 58.35 112.7
2 37.5 110.7
3 33 107.8

Dihedral Coeffs # opls

1 1.3 -0.05 0.2 0
2 0 0 0.3 0
3 0 0 0.3 0

Atoms # full

9  1 2 0.06 -1.3887595213360973 2.2093864235059897 -0.09593337124552817 0 0 0
6  1 2 0.06 -3.2907718789516873 1.9918394405459092 1.6188319091879417 0 0 0
1  1 1 -0.18 -2.4914165878784913 0.27612644657598717 2.675252677867173 0 0 0
7  1 2 0.06 -1.672737658922041 2.1856658001493012 2.206227570970362 0 0 0
5  1 1 -0.12 -2.3340762094853744 1.461999146927998 1.706901027472103 0 0 0
10 1 2 0.06 -2.2930669661191447 0.6752660187792962 -0.36611950233862267 0 0 0
2  1 2 0.06 -3.159280119981218 -0.4321254973345113 2.268935398126148 0 0 0
8  1 1 -0.12 -1.6373506643967077 1.2172253561305115 0.33456463295678385 0 0 0
3  1 2 0.06 -3.054807879260839 0.6238626359777181 3.529151955718138 0 0 0
4  1 2 0.06 -1.624719825132287 -0.08617148854661924 3.15658283979601 0 0 0
11 1 1 -0.18 -0.3889719653220006 0.38642223612730625 0.26810333980709045 0 0 0
14 1 2 0.06 -0.8400198879537901 -0.608821441694247 0.12474294352089206 0 0 0
12 1 2 0.06 0.40551516081473626 0.6357008223282989 -0.5376466088562771 0 0 0
13 1 2 0.06 0.14052030469042853 0.43718186667248915 1.2387035019606067 0 0 0

Velocities

9 -0.033985711768152196 -0.011206940667962321 0.007974002988977004
6 0.005415494915102976 0.013758803790783954 -0.015299417847335102
1 0.0016514826959287566 0.0004293390967238509 0.005341870884932441
7 0.007396447425640405 -0.027008343788909806 -0.012696833924687451
5 0.006849287112625091 0.0005520127319125311 -0.0014658101309565205
10 -0.012593231290257611 -0.005118785729351008 -0.0071883681804930915
2 -0.0022471670393866675 -0.01936528537086745 0.01500293356513115
8 -0.0016456423206063168 0.003487966084061879 0.0005109254388012193
3 -0.020170236625833785 0.02037810118535675 -0.012184874793557643
4 0.025182043866737114 -0.015763822074848763 0.028836846429989026
11 -0.003143674807367291 -0.001499887284798732 -0.00278013783351917
14 0.01087903598219835 0.011323388157121222 -0.009885401664126981
12 -0.0020002551886069107 -0.012816220392211372 -0.014431676842823765
13 -0.022060380760550342 0.010468740273043326 0.000743643134942154

Bonds

1 2 1 3
2 2 1 2
3 2 1 4
4 1 1 5
5 2 5 6
6 2 5 7
7 1 5 8
8 2 8 9
9 2 8 10
10 1 8 11
11 2 11 12
12 2 11 13
13 2 11 14

Angles

1 3 2 1 3
2 3 3 1 4
3 2 3 1 5
4 3 2 1 4
5 2 2 1 5
6 2 4 1 5
7 2 1 5 6
8 2 1 5 7
9 1 1 5 8
10 3 6 5 7
11 2 6 5 8
12 2 7 5 8
13 2 5 8 9
14 2 5 8 10
15 1 5 8 11
16 3 9 8 10
17 2 9 8 11
18 2 10 8 11
19 2 8 11 12
20 2 8 11 13
21 2 8 11 14
22 3 12 11 13
23 3 12 11 14
24 3 13 11 14

Dihedrals

1 3 3 1 5 6
2 3 3 1 5 7
3 2 3 1 5 8
4 3 2 1 5 6
5 3 2 1 5 7
6 2 2 1 5 8
7 3 4 1 5 6
8 3 4 1 5 7
9 2 4 1 5 8
10 2 1 5 8 9
11 2 1 5 8 10
12 1 1 5 8 11
13 3 6 5 8 9
14 3 6 5 8 10
15 2 6 5 8 11
16 3 7 5 8 9
17 3 7 5 8 10
18 2 7 5 8 11
19 2 5 8 11 12
20 2 5 8 11 13
21 2 5 8 11 14
22 3 9 8 11 12
23 3 9 8 11 13
24 3 9 8 11 14
25 3 10 8 11 12
26 3 10 8 11 13
27 3 10 8 11 14
