LAMMPS (29 Sep 2021 - Update 2)
  using 1 OpenMP thread(s) per MPI task

# Define name of log file
log            butane_nvt_prod.log
