ITEM: TIMESTEP
0
ITEM: NUMBER OF ATOMS
22
ITEM: BOX BOUNDS pp pp pp
-5.0000000000000000e+01 5.0000000000000000e+01
-5.0000000000000000e+01 5.0000000000000000e+01
-5.0000000000000000e+01 5.0000000000000000e+01
ITEM: ATOMS id type x y z fx fy fz
1 1 5.01584 6.30989 -3.8649 31.1061 -12.4888 -9.85022
2 2 4.17709 6.67013 -3.26923 -138.831 -88.7124 -40.0084
3 1 3.37775 6.71479 -4.00893 87.9205 -0.495873 93.5858
4 1 4.40983 7.6516 -2.85613 8.1705 46.426 23.8151
5 3 3.78389 5.55777 -2.12093 -12.2572 7.4658 -63.9114
6 4 3.08618 4.59224 -2.50742 15.656 31.0664 7.54995
7 5 4.17793 5.69497 -0.842931 2.48263 14.1764 -0.820752
8 6 4.94362 6.3422 -0.720763 -4.28177 1.07331 0.851873
9 2 3.7629 5.00543 0.420091 21.7894 -119.457 -83.3263
10 7 3.48842 5.8007 1.11313 -36.8748 79.9567 75.5393
11 2 2.56262 3.95536 0.251273 -25.3082 9.58441 52.1862
12 1 1.52505 4.24273 0.0810585 72.8908 5.88955 3.11385
13 1 2.90634 3.28137 -0.533393 -5.55906 -17.0441 -3.92578
14 1 2.53719 3.42555 1.20351 -3.94063 14.1313 -41.7371
15 3 5.00823 4.27833 1.0861 43.008 52.2925 -19.6572
16 4 6.15826 4.39711 0.585882 -35.6748 -6.58477 -1.90159
17 5 4.92869 3.86443 2.34726 -32.2402 -19.4708 -12.694
18 6 3.97987 3.61707 2.58946 45.4839 7.32311 15.5929
19 2 6.17297 3.47658 3.09063 29.5101 28.4848 -12.8449
20 7 6.57791 2.51993 2.76057 -0.0783274 9.33059 -10.9565
21 7 6.94266 4.24415 3.1714 -44.059 -36.8627 -17.9974
22 7 5.93891 3.2505 4.13092 -18.9131 -6.08409 47.3964
ITEM: TIMESTEP
1
ITEM: NUMBER OF ATOMS
22
ITEM: BOX BOUNDS pp pp pp
-5.0000000000000000e+01 5.0000000000000000e+01
-5.0000000000000000e+01 5.0000000000000000e+01
-5.0000000000000000e+01 5.0000000000000000e+01
ITEM: ATOMS id type x y z fx fy fz
1 1 4.99803 6.30365 -3.87834 5.52357 -0.400915 10.7952
2 2 4.17395 6.67173 -3.26718 -6.8617 -60.0654 43.8224
3 1 3.37889 6.69287 -4.01252 -4.69541 8.96611 9.97764
4 1 4.42806 7.6452 -2.84779 -5.80708 -3.62099 0.652474
5 3 3.78468 5.55377 -2.1266 -11.1263 8.67364 -59.3573
6 4 3.08862 4.58814 -2.51296 15.416 29.4631 7.66098
7 5 4.17431 5.6928 -0.845873 2.56805 14.6871 -0.8891
8 6 4.92152 6.35766 -0.705364 -3.18239 1.61619 -2.03527
9 2 3.76495 5.00623 0.415784 -8.95351 -35.9146 -0.802764
10 7 3.5053 5.8062 1.10913 -9.18676 -6.53885 0.177345
11 2 2.56668 3.95408 0.256846 38.5193 4.65405 18.4493
12 1 1.52314 4.23084 0.10674 12.1682 23.7482 -11.2112
13 1 2.92648 3.26782 -0.509761 -12.2806 -8.41306 4.4317
14 1 2.51698 3.44242 1.21801 -0.774229 -6.52033 -4.77477
15 3 5.0052 4.27741 1.09288 48.8334 57.6162 -34.5609
16 4 6.15531 4.40375 0.58826 -37.635 -8.34384 0.452203
17 5 4.93364 3.86324 2.34478 -3.77066 -11.8362 -10.9076
18 6 3.98703 3.63111 2.60961 8.95611 -1.4616 22.3445
19 2 6.16838 3.47876 3.09025 -10.0263 -17.7852 32.499
20 7 6.58879 2.53511 2.74259 -1.00548 5.22883 -9.74211
21 7 6.94547 4.23888 3.17059 -5.49247 4.83952 -15.6984
22 7 5.95928 3.27427 4.14028 -11.1868 1.40793 -1.28335
