14
 Atoms. Timestep: 0
1 -6.61087 -1.96814 6.91723
2 -6.42091 -2.90508 6.29824
2 -6.75059 -1.12667 6.14512
2 -7.63499 -2.16199 7.21469
1 -5.70384 -1.70712 8.0875
2 -5.53622 -2.59532 8.66144
2 -4.62014 -1.55293 7.75575
1 -6.12117 -0.545845 9.08456
2 -7.23186 -0.431055 9.16893
2 -5.75987 0.434666 8.58934
1 -5.41166 -0.711639 10.4867
2 -4.31036 -0.771632 10.2955
2 -5.7991 -0.03426 11.238
2 -5.66642 -1.70684 10.8307
14
 Atoms. Timestep: 1
1 -6.61153 -1.96822 6.91591
2 -6.41899 -2.8995 6.30304
2 -6.74734 -1.13147 6.152
2 -7.6353 -2.16152 7.2172
1 -5.70286 -1.70664 8.08788
2 -5.53851 -2.59839 8.66258
2 -4.62791 -1.55248 7.75649
1 -6.12091 -0.545357 9.08413
2 -7.22783 -0.432656 9.16937
2 -5.76312 0.427227 8.59394
1 -5.41174 -0.712027 10.4859
2 -4.3138 -0.768747 10.2988
2 -5.79694 -0.0321309 11.2386
2 -5.66675 -1.70737 10.8321
