14
 Atoms. Timestep: 0
1 -0.388332 -1.37462 3.25564
2 -0.975266 -2.32832 3.5365
2 -0.050484 -0.688308 4.12908
2 0.49642 -1.74142 2.81035
1 -1.09927 -0.437459 2.25606
2 -0.424391 0.399215 1.98488
2 -1.31657 -0.888789 1.22354
1 -2.48148 0.029137 2.70534
2 -2.51317 0.076715 3.83988
2 -3.19391 -0.813519 2.58247
1 -3.08242 1.33268 2.09775
2 -3.18714 1.17258 1.03561
2 -4.06681 1.59641 2.44094
2 -2.5163 2.20167 2.40522
14
 Atoms. Timestep: 1
1 -0.388681 -1.37446 3.25625
2 -0.971838 -2.31965 3.53581
2 -0.0540423 -0.696422 4.12357
2 0.500642 -1.74269 2.80841
1 -1.09936 -0.437468 2.25503
2 -0.426329 0.398129 1.98707
2 -1.31342 -0.887887 1.23142
1 -2.48203 0.0289395 2.70636
2 -2.51183 0.0784806 3.83345
2 -3.19218 -0.811121 2.5809
1 -3.08223 1.33235 2.0979
2 -3.18599 1.17472 1.0336
2 -4.06907 1.59468 2.44235
2 -2.51405 2.20246 2.40306
