ITEM: TIMESTEP
0
ITEM: NUMBER OF ATOMS
14
ITEM: BOX BOUNDS pp pp pp
-2.2206855000000001e+01 1.8793144999999999e+01
-1.9677098999999998e+01 2.1322901000000002e+01
-1.9241968000000000e+01 2.1758032000000000e+01
ITEM: ATOMS id type x y z fx fy fz
1 1 3.29112 -9.75373 4.04369 -12.6072 11.9207 0.379623
2 2 2.48935 -10.3266 4.55187 7.35102 8.14668 -6.63108
3 2 3.00682 -9.72141 2.92728 10.0813 5.87114 41.3278
4 2 3.29726 -8.71509 4.57233 2.57223 -41.5213 -31.1244
5 1 4.61441 -10.5528 4.24478 18.1958 -9.41998 5.41855
6 2 4.49508 -11.6935 4.12169 -1.1331 43.5609 -2.08622
7 2 5.33897 -10.1988 3.46495 -12.6754 -8.81505 14.7264
8 1 5.2619 -10.3233 5.66912 24.3346 -31.2614 -12.7221
9 2 4.53865 -10.754 6.39873 14.6456 2.67196 -8.1962
10 2 5.31548 -9.24896 5.96311 5.62079 -15.3629 -8.56528
11 1 6.71262 -11.1146 5.72507 -2.43134 12.9301 45.3077
12 2 6.79791 -12.0145 5.05973 -4.85866 21.5973 7.00488
13 2 7.64334 -10.4445 5.62624 -37.5489 -20.052 -6.12527
14 2 6.87855 -11.5684 6.77491 -11.5467 19.7338 -38.7144
ITEM: TIMESTEP
1
ITEM: NUMBER OF ATOMS
14
ITEM: BOX BOUNDS pp pp pp
-2.2206855000000001e+01 1.8793144999999999e+01
-1.9677098999999998e+01 2.1322901000000002e+01
-1.9241968000000000e+01 2.1758032000000000e+01
ITEM: ATOMS id type x y z fx fy fz
1 1 3.2909 -9.75352 4.0437 -9.4846 6.24093 1.96152
2 2 2.49087 -10.3249 4.55049 6.01543 7.27326 -5.76779
3 2 3.00891 -9.72019 2.93585 8.61324 5.88722 35.4984
4 2 3.2978 -8.72371 4.56587 2.58051 -35.0704 -27.6492
5 1 4.61473 -10.553 4.24487 16.3445 -4.29764 7.78864
6 2 4.49484 -11.6844 4.12126 -1.62993 37.5 -2.61496
7 2 5.33634 -10.2007 3.468 -10.6928 -7.82869 12.6185
8 1 5.26232 -10.3239 5.66889 25.4881 -32.1037 -14.3313
9 2 4.54169 -10.7535 6.39702 13.2092 1.93368 -6.84355
10 2 5.31665 -9.25215 5.96134 5.61535 -13.4656 -7.97947
11 1 6.71258 -11.1144 5.72586 -8.30314 14.1321 40.7641
12 2 6.7969 -12.0101 5.06118 -4.58632 19.3838 5.60559
13 2 7.63555 -10.4486 5.62497 -32.7656 -16.6909 -6.40835
14 2 6.87616 -11.5644 6.76688 -10.404 17.106 -32.6422
