ITEM: TIMESTEP
0
ITEM: NUMBER OF ATOMS
14
ITEM: BOX BOUNDS pp pp pp
-2.2206855000000001e+01 1.8793144999999999e+01
-1.9677098999999998e+01 2.1322901000000002e+01
-1.9241968000000000e+01 2.1758032000000000e+01
ITEM: ATOMS id type x y z fx fy fz
1 1 -5.9696 -1.87856 1.8309 -66.9702 -20.0756 -74.1196
2 2 -6.60325 -2.75602 2.14859 26.1655 17.2131 8.51181
3 2 -5.30982 -2.22109 1.00971 0.842657 1.90083 15.8607
4 2 -6.8007 -1.33655 1.1968 45.8506 -11.7114 40.1391
5 1 -5.25867 -1.05242 2.87659 -10.9015 65.9599 -1.68357
6 2 -4.96741 -0.056813 2.32925 -6.53832 -47.3225 30.3899
7 2 -6.08323 -0.748238 3.5837 25.8272 -8.07585 -7.0868
8 1 -4.03283 -1.73506 3.56648 -35.9415 24.0543 -4.74106
9 2 -3.29829 -1.8469 2.82801 18.4983 -10.1866 -21.849
10 2 -4.34508 -2.7176 3.90935 5.28047 -3.51649 3.87325
11 1 -3.37592 -0.903226 4.66622 12.9441 7.96002 -4.20399
12 2 -3.84338 -1.16273 5.60684 2.88608 4.86361 9.28288
13 2 -2.31931 -1.14588 4.64811 1.72557 -12.4378 11.3139
14 2 -3.24176 0.188032 4.55194 -19.6689 -8.62535 -5.68745
ITEM: TIMESTEP
1
ITEM: NUMBER OF ATOMS
14
ITEM: BOX BOUNDS pp pp pp
-2.2206855000000001e+01 1.8793144999999999e+01
-1.9677098999999998e+01 2.1322901000000002e+01
-1.9241968000000000e+01 2.1758032000000000e+01
ITEM: ATOMS id type x y z fx fy fz
1 1 -5.97076 -1.87891 1.82961 -58.089 -19.1855 -66.785
2 2 -6.59782 -2.75244 2.15035 23.6342 14.1925 8.98082
3 2 -5.30964 -2.22069 1.01301 1.52775 1.20986 14.1553
4 2 -6.79119 -1.33898 1.20513 39.1637 -8.11754 34.837
5 1 -5.25886 -1.05127 2.87656 -10.291 56.5538 -0.650452
6 2 -4.96876 -0.0666343 2.33556 -4.64622 -40.0017 26.4236
7 2 -6.07787 -0.749914 3.58223 22.8673 -6.83079 -4.90129
8 1 -4.03345 -1.73464 3.5664 -32.5965 22.6963 -7.44376
9 2 -3.29445 -1.84902 2.82348 15.3955 -9.48686 -18.709
10 2 -4.34398 -2.71833 3.91015 5.15624 -2.91468 3.65828
11 1 -3.37569 -0.903087 4.66614 12.567 5.98969 -3.12471
12 2 -3.84278 -1.16172 5.60877 3.0324 4.99671 8.30295
13 2 -2.31895 -1.14846 4.65046 1.29092 -11.9003 11.038
14 2 -3.24584 0.186242 4.55076 -19.0125 -7.20146 -5.78169
