ITEM: TIMESTEP
0
ITEM: NUMBER OF ATOMS
14
ITEM: BOX BOUNDS pp pp pp
-2.2206855000000001e+01 1.8793144999999999e+01
-1.9677098999999998e+01 2.1322901000000002e+01
-1.9241968000000000e+01 2.1758032000000000e+01
ITEM: ATOMS id type x y z fx fy fz
1 1 -5.86432 -1.15114 1.97682 7.76277 24.9374 -46.3881
2 2 -5.71876 -2.07229 1.34668 -13.4699 17.6058 13.8877
3 2 -5.15963 -0.386143 1.48163 -29.5707 -24.3824 17.7509
4 2 -6.93618 -0.729978 1.94138 37.7263 -19.3405 0.35363
5 1 -5.35951 -1.38899 3.37828 -15.5199 46.5076 65.2619
6 2 -5.35859 -0.393941 3.99477 -2.55886 -43.4897 -32.7008
7 2 -5.97813 -2.08635 3.9787 -7.47722 11.3962 -17.265
8 1 -4.00767 -2.00268 3.52088 34.5928 -41.65 -13.4499
9 2 -3.18407 -1.46803 2.99934 -14.3288 1.92055 10.2441
10 2 -4.0527 -3.00206 2.93984 4.17729 34.2208 30.3227
11 1 -3.70635 -2.18503 5.06842 -12.7 5.12591 -5.53283
12 2 -4.53834 -2.79086 5.46556 12.9703 -0.955313 1.62953
13 2 -2.75168 -2.68171 5.28345 -4.75458 -0.123854 -4.40456
14 2 -3.74527 -1.25884 5.69892 3.15045 -11.7725 -19.7093
ITEM: TIMESTEP
1
ITEM: NUMBER OF ATOMS
14
ITEM: BOX BOUNDS pp pp pp
-2.2206855000000001e+01 1.8793144999999999e+01
-1.9677098999999998e+01 2.1322901000000002e+01
-1.9241968000000000e+01 2.1758032000000000e+01
ITEM: ATOMS id type x y z fx fy fz
1 1 -5.86418 -1.15071 1.97601 8.87254 21.2382 -40.4674
2 2 -5.72155 -2.06864 1.34956 -12.7632 14.8667 11.9242
3 2 -5.16577 -0.391203 1.48532 -25.6378 -20.233 14.8582
4 2 -6.92835 -0.733992 1.94145 32.2064 -17.0189 0.12544
5 1 -5.35978 -1.38818 3.37941 -14.4242 40.0578 58.0093
6 2 -5.35912 -0.402967 3.98798 -2.52925 -36.3657 -28.0072
7 2 -5.97968 -2.08398 3.97512 -8.1615 10.2755 -15.8171
8 1 -4.00707 -2.00341 3.52065 32.2033 -36.2328 -8.43559
9 2 -3.18704 -1.46763 3.00147 -12.6054 2.68508 9.14185
10 2 -4.05183 -2.99496 2.94613 3.99438 28.4289 26.7054
11 1 -3.70658 -2.18494 5.06832 -11.7342 3.37643 -7.85155
12 2 -4.53564 -2.79106 5.4659 11.8094 -1.44585 1.97405
13 2 -2.75267 -2.68173 5.28254 -4.23908 -0.218738 -4.23401
14 2 -3.74462 -1.26128 5.69483 3.00876 -9.41353 -17.9257
