ITEM: TIMESTEP
0
ITEM: NUMBER OF ATOMS
14
ITEM: BOX BOUNDS pp pp pp
-2.2206855000000001e+01 1.8793144999999999e+01
-1.9677098999999998e+01 2.1322901000000002e+01
-1.9241968000000000e+01 2.1758032000000000e+01
ITEM: ATOMS id type x y z fx fy fz
1 1 -0.496065 -0.353973 3.16002 1.00772 -18.2167 29.5459
2 2 -0.192354 -1.17756 3.88092 -4.62294 16.2033 -28.4435
3 2 -0.702285 0.443446 3.87669 2.64719 6.80973 -8.36907
4 2 0.344216 -0.073986 2.48408 -11.0825 -4.24254 11.3171
5 1 -1.79236 -0.696834 2.3914 23.6326 -54.4075 -16.5131
6 2 -2.0692 0.082558 1.7607 -4.64353 28.3499 -19.8033
7 2 -1.5724 -1.59171 1.70835 -5.09412 32.1284 20.4923
8 1 -3.00934 -1.09004 3.20655 -13.9952 -8.55973 14.6844
9 2 -3.2494 -0.355826 4.01447 8.56422 -12.8201 -11.4396
10 2 -2.73891 -2.07872 3.65268 -10.5149 17.6872 -0.751424
11 1 -4.27351 -1.24662 2.30055 -16.4922 0.361483 -39.3152
12 2 -4.0487 -1.85751 1.36984 -3.67466 9.3409 30.6133
13 2 -5.15695 -1.70466 2.8104 18.507 5.9588 -4.27463
14 2 -4.6612 -0.296807 1.8148 15.7613 -18.5931 22.2568
ITEM: TIMESTEP
1
ITEM: NUMBER OF ATOMS
14
ITEM: BOX BOUNDS pp pp pp
-2.2206855000000001e+01 1.8793144999999999e+01
-1.9677098999999998e+01 2.1322901000000002e+01
-1.9241968000000000e+01 2.1758032000000000e+01
ITEM: ATOMS id type x y z fx fy fz
1 1 -0.496047 -0.354291 3.16053 -1.59605 -15.4376 27.1135
2 2 -0.193313 -1.1742 3.87501 -3.44186 12.9532 -25.189
3 2 -0.701736 0.444859 3.87495 2.53785 6.68871 -7.98814
4 2 0.341916 -0.0748665 2.48642 -9.58003 -3.79112 10.0052
5 1 -1.79195 -0.697783 2.39112 21.011 -45.5015 -15.7236
6 2 -2.07016 0.0884417 1.75659 -3.32247 24.2998 -16.6226
7 2 -1.57345 -1.58504 1.7126 -3.94848 27.3542 16.9145
8 1 -3.00958 -1.09019 3.20681 -13.9739 -7.99386 11.2715
9 2 -3.24763 -0.358487 4.01209 7.87326 -10.9873 -9.56539
10 2 -2.74109 -2.07505 3.65252 -9.81451 15.247 0.234316
11 1 -4.2738 -1.24661 2.29986 -13.1487 0.194419 -33.8344
12 2 -4.04946 -1.85557 1.37619 -2.92519 7.02085 26.6122
13 2 -5.15311 -1.70343 2.80952 16.2937 4.96859 -3.26539
14 2 -4.65793 -0.300666 1.81942 14.0354 -15.0153 20.0372
