ITEM: TIMESTEP
0
ITEM: NUMBER OF ATOMS
22
ITEM: BOX BOUNDS pp pp pp
-5.0000000000000000e+01 5.0000000000000000e+01
-5.0000000000000000e+01 5.0000000000000000e+01
-5.0000000000000000e+01 5.0000000000000000e+01
ITEM: ATOMS id type x y z fx fy fz
1 1 3.95513 8.157 0.348352 82.0671 -41.2155 45.3505
2 2 4.79227 7.7564 0.920029 -80.101 41.0473 -70.5069
3 1 4.36471 7.45407 1.876 -12.1751 -12.4686 33.803
4 1 5.48833 8.57084 1.12074 15.4033 1.94859 -3.32205
5 3 5.43073 6.52822 0.28251 10.833 -12.6073 -34.3049
6 4 6.65037 6.28113 0.426698 -33.473 12.621 -0.278935
7 5 4.57137 5.7963 -0.494325 -78.6598 24.5812 64.9416
8 6 3.60312 5.98674 -0.279106 104.167 -12.6116 -35.3389
9 2 4.7553 4.4634 -1.09997 25.34 22.1951 -68.225
10 7 4.75736 4.56629 -2.1851 -2.26504 -5.55687 70.0474
11 2 6.07579 3.73877 -0.714963 -92.8961 -50.9689 121.699
12 1 6.17897 3.71762 0.369936 -1.08572 2.14828 -80.8232
13 1 5.96957 2.71803 -1.08225 1.76689 -2.80936 4.46774
14 1 6.95939 4.10042 -1.24085 76.6923 45.2205 -41.9317
15 3 3.48685 3.73609 -0.714329 -34.1567 -85.5103 75.1846
16 4 2.47592 3.99152 -1.32525 -18.4987 7.61473 -7.73818
17 5 3.42828 2.81669 0.389569 39.9104 70.3595 -63.6947
18 6 4.34445 2.59217 0.750582 11.7184 -2.99274 5.83033
19 2 2.33565 2.35593 1.23306 44.9153 12.8308 22.045
20 7 1.75224 1.74788 0.541671 -31.3536 -1.38547 -3.74495
21 7 2.81046 1.66485 1.92953 -26.9213 30.0942 -16.5282
22 7 1.93399 3.25503 1.70038 -1.22783 -42.5344 -16.9317
ITEM: TIMESTEP
1
ITEM: NUMBER OF ATOMS
22
ITEM: BOX BOUNDS pp pp pp
-5.0000000000000000e+01 5.0000000000000000e+01
-5.0000000000000000e+01 5.0000000000000000e+01
-5.0000000000000000e+01 5.0000000000000000e+01
ITEM: ATOMS id type x y z fx fy fz
1 1 3.94789 8.14479 0.34637 6.25509 -0.502397 -7.19161
2 2 4.79016 7.76026 0.921546 -5.54999 -11.5566 12.8343
3 1 4.34508 7.42966 1.86001 4.90396 1.76673 1.1378
4 1 5.50806 8.55521 1.12345 2.95382 -5.58987 -3.98315
5 3 5.43192 6.52387 0.277359 7.02297 -6.59475 -31.5455
6 4 6.65217 6.27679 0.42106 -34.0644 12.4963 -0.677689
7 5 4.56654 5.79429 -0.496285 29.4925 9.80214 43.7413
8 6 3.60353 5.99936 -0.271219 -0.276472 4.62306 -14.0477
9 2 4.75741 4.46667 -1.10401 22.7721 2.41795 4.94853
10 7 4.78143 4.55404 -2.19024 -5.35659 2.75812 1.89239
11 2 6.07867 3.73644 -0.708179 -22.2691 -13.8246 -4.23998
12 1 6.1617 3.70496 0.378198 7.95791 3.00817 -1.92625
13 1 5.99123 2.70743 -1.05687 0.840459 -0.167215 1.56326
14 1 6.95591 4.12374 -1.2264 -3.92817 8.94733 7.95191
15 3 3.48248 3.73277 -0.705897 -26.3642 -71.4199 57.0026
16 4 2.47319 3.99834 -1.32295 -16.7616 4.21743 -3.28025
17 5 3.43431 2.81684 0.386328 42.3731 57.781 -43.7394
18 6 4.34459 2.60407 0.768709 -0.00375779 0.741835 -1.77671
19 2 2.33133 2.35784 1.23329 41.0457 0.361658 -37.9944
20 7 1.75663 1.76084 0.525181 -22.1636 9.71612 10.8353
21 7 2.81684 1.67348 1.92902 -10.8196 3.00328 9.22785
22 7 1.95803 3.27124 1.69639 -18.0601 -11.9858 -0.732634
