22
 Atoms. Timestep: 0
1 7.29168 7.9037 0.257151
2 6.29021 7.7778 -0.154324
1 6.56047 7.97885 -1.19097
1 5.73738 8.52593 0.413814
3 5.90929 6.29614 -0.066976
4 6.6523 5.40436 0.195251
5 4.5678 6.18691 -0.399705
6 4.34665 7.12742 -0.694053
2 3.77613 4.95981 -0.849821
7 2.72839 5.23322 -0.974654
2 4.25721 4.52778 -2.26088
1 3.8605 5.1091 -3.09322
1 5.34447 4.57616 -2.20066
1 3.97093 3.50999 -2.52593
3 3.63041 3.7381 0.173743
4 4.49515 2.90241 0.282814
5 2.43343 3.48287 0.839347
6 1.68976 4.16268 0.769275
2 1.93083 2.21054 1.33844
7 0.988146 2.18734 0.791714
7 2.56245 1.37456 1.03794
7 1.72948 2.26155 2.40847
22
 Atoms. Timestep: 1
1 7.29155 7.90099 0.257438
2 6.28966 7.77957 -0.154366
1 6.53616 7.95662 -1.20126
1 5.74056 8.52119 0.425797
3 5.90841 6.29256 -0.0717245
4 6.65487 5.3996 0.189726
5 4.56486 6.18529 -0.40298
6 4.32189 7.12696 -0.6756
2 3.77936 4.96221 -0.851996
7 2.73274 5.22968 -0.997393
2 4.26375 4.52662 -2.25505
1 3.83951 5.1052 -3.07563
1 5.35046 4.56476 -2.1796
1 3.94847 3.51312 -2.5031
3 3.62602 3.73626 0.181088
4 4.49296 2.90903 0.285153
5 2.43858 3.48303 0.836575
6 1.69859 4.1686 0.786319
2 1.92654 2.212 1.33781
7 0.993374 2.19661 0.774722
7 2.57022 1.38294 1.0438
7 1.75407 2.28603 2.41153
