22
 Atoms. Timestep: 0
1 5.62904 1.19173 -2.21171
2 5.50237 1.52379 -1.18128
1 6.45445 1.64008 -0.663484
1 4.83945 0.868247 -0.616562
3 4.93653 2.94734 -1.39939
4 4.57109 3.29074 -2.54707
5 4.62319 3.62985 -0.256109
6 4.96696 3.35736 0.653656
2 4.02448 4.98067 -0.312444
7 4.42025 5.51643 -1.17525
2 2.55171 4.73797 -0.449683
1 2.43417 4.14721 -1.35813
1 2.2002 4.01487 0.286294
1 2.04798 5.70314 -0.502619
3 4.44377 5.85381 0.783569
4 5.17144 5.31598 1.64001
5 3.92082 7.09434 0.827295
6 3.41546 7.48096 0.0429263
2 4.19328 7.95357 1.9209
7 4.37174 8.97132 1.57386
7 3.4156 7.93478 2.68441
7 5.16392 7.73528 2.36621
22
 Atoms. Timestep: 1
1 5.60478 1.18846 -2.21142
2 5.49982 1.52703 -1.18067
1 6.46066 1.62 -0.674463
1 4.85604 0.854088 -0.614284
3 4.93693 2.9428 -1.40355
4 4.57356 3.28625 -2.55233
5 4.61995 3.62757 -0.259233
6 4.944 3.37248 0.662735
2 4.02689 4.98362 -0.316956
7 4.43831 5.49714 -1.18594
2 2.5549 4.73755 -0.444061
1 2.41451 4.13307 -1.34016
1 2.22487 4.01689 0.30416
1 2.03666 5.69587 -0.477997
3 4.43996 5.85172 0.791436
4 5.16887 5.3231 1.64246
5 3.92668 7.09308 0.825218
6 3.40994 7.49384 0.0555012
2 4.19074 7.95686 1.92088
7 4.37769 8.96924 1.56278
7 3.42135 7.93653 2.69272
7 5.16993 7.7622 2.35837
