ITEM: TIMESTEP
0
ITEM: NUMBER OF ATOMS
22
ITEM: BOX BOUNDS pp pp pp
-5.0000000000000000e+01 5.0000000000000000e+01
-5.0000000000000000e+01 5.0000000000000000e+01
-5.0000000000000000e+01 5.0000000000000000e+01
ITEM: ATOMS id type x y z fx fy fz
1 1 6.98359 6.87533 -0.727604 74.6733 -34.4295 54.3148
2 2 6.21567 7.28697 -1.38255 -30.7263 -65.4134 -198.901
3 1 6.36975 6.99466 -2.42126 -9.53468 33.2156 119.029
4 1 6.27186 8.37458 -1.33727 -11.0695 81.2644 8.80986
5 3 4.93827 6.66239 -1.02141 -17.1488 -45.4572 66.9624
6 4 3.83012 7.15684 -1.11954 6.91326 26.2059 -22.8466
7 5 5.05735 5.48518 -0.346332 -82.2423 39.3004 -49.6563
8 6 5.9474 5.19065 0.0293797 53.844 -17.6603 13.8711
9 2 4.02298 4.46756 -0.666951 137.49 -11.6422 79.9515
10 7 3.11204 4.9918 -0.955843 -76.7375 30.5444 -39.7988
11 2 4.79861 3.70544 -1.76123 -73.2775 11.7173 -0.776489
12 1 5.81394 3.35507 -1.57565 48.2394 -13.6765 25.5168
13 1 4.16039 2.8548 -2.00037 -15.7598 -32.9034 -10.4671
14 1 4.81448 4.31767 -2.66291 2.54422 18.5805 -26.0651
15 3 3.64873 3.64595 0.595652 36.0343 -7.07686 -54.7148
16 4 2.62752 3.00273 0.451353 -15.2329 -10.591 27.2663
17 5 4.56147 3.50415 1.59213 -47.1978 -26.4036 -17.3113
18 6 5.4187 4.03017 1.49963 6.60643 -5.92476 18.0222
19 2 4.16474 2.57211 2.68756 137.432 22.7218 34.9645
20 7 4.12442 1.4979 2.50715 -10.1861 -35.4269 -34.5393
21 7 4.91232 2.49852 3.47737 -44.2444 27.2831 -34.4993
22 7 3.17282 2.9544 2.9285 -70.4193 15.7722 40.8675
ITEM: TIMESTEP
1
ITEM: NUMBER OF ATOMS
22
ITEM: BOX BOUNDS pp pp pp
-5.0000000000000000e+01 5.0000000000000000e+01
-5.0000000000000000e+01 5.0000000000000000e+01
-5.0000000000000000e+01 5.0000000000000000e+01
ITEM: ATOMS id type x y z fx fy fz
1 1 6.97482 6.86453 -0.727725 6.52153 3.29613 -5.46364
2 2 6.21442 7.28897 -1.38327 24.4173 5.05543 -16.9201
3 1 6.35066 6.97973 -2.41956 10.199 2.26659 0.369652
4 1 6.2861 8.3754 -1.33205 -16.5409 0.911786 4.61607
5 3 4.93897 6.65747 -1.0248 -18.7708 -39.1642 66.1692
6 4 3.83245 7.15268 -1.12547 5.75951 26.3805 -23.03
7 5 5.05247 5.48339 -0.350003 -21.8562 25.2001 -23.2564
8 6 5.93737 5.20222 0.0474803 -0.723727 -1.23544 -9.33927
9 2 4.02704 4.47024 -0.668413 49.4748 23.78 56.1002
10 7 3.12065 4.98705 -0.98378 2.57257 -15.3171 -11.1105
11 2 4.80183 3.7042 -1.75658 -39.2314 -16.8725 -19.3563
12 1 5.80691 3.33912 -1.54532 -5.10579 8.47937 11.6457
13 1 4.17842 2.83796 -1.9781 2.98717 -2.99437 -4.3614
14 1 4.79561 4.33546 -2.64516 5.95136 -4.30238 -1.23495
15 3 3.64558 3.644 0.601821 43.9875 3.30072 -64.5342
16 4 2.62483 3.00932 0.454112 -19.3035 -14.1622 28.4034
17 5 4.5662 3.50285 1.58958 -43.9579 -26.0004 -9.70279
18 6 5.41779 4.04146 1.52029 0.132427 -8.86407 15.7254
19 2 4.16203 2.57419 2.68801 26.6963 16.048 -1.52644
20 7 4.1332 1.50379 2.48427 -11.3228 8.23729 -23.4169
21 7 4.9151 2.50657 3.47313 -4.74062 21.8506 7.86536
22 7 3.18251 2.98271 2.9365 2.85416 -15.8939 22.358
