ITEM: TIMESTEP
0
ITEM: NUMBER OF ATOMS
22
ITEM: BOX BOUNDS pp pp pp
-5.0000000000000000e+01 5.0000000000000000e+01
-5.0000000000000000e+01 5.0000000000000000e+01
-5.0000000000000000e+01 5.0000000000000000e+01
ITEM: ATOMS id type x y z fx fy fz
1 1 5.67363 2.04982 -2.4751 47.1295 69.1306 0.176713
2 2 6.21421 2.99577 -2.50742 26.5463 -19.4998 0.530333
3 1 5.71144 3.61919 -3.2468 30.0947 -31.8525 36.6228
4 1 7.27145 2.90258 -2.75575 -84.8924 1.1364 17.1237
5 3 6.13085 3.71666 -1.08106 -0.722654 -28.3819 -43.8067
6 4 6.85288 3.57395 -0.103401 21.7926 -23.3544 -17.4044
7 5 5.11667 4.49944 -0.986393 -37.7718 31.6804 -11.8569
8 6 4.53653 4.71698 -1.78403 1.5614 -10.2077 -7.8047
9 2 4.65839 5.12036 0.220446 60.8846 -5.60854 45.4906
10 7 4.93289 4.44751 1.03287 13.6655 15.1988 -1.12209
11 2 5.2888 6.53387 0.325272 55.8523 9.49807 14.5322
12 1 5.27807 7.01508 1.30324 -19.5516 -30.873 -57.8112
13 1 6.35892 6.44612 0.137534 -63.3219 5.96432 2.37458
14 1 4.76832 7.02797 -0.495135 22.4495 10.7183 28.2805
15 3 3.23011 5.13368 0.363217 -53.267 -10.652 -47.3169
16 4 2.5218 4.97773 -0.614118 -11.3801 5.76409 -13.7593
17 5 2.73504 5.25542 1.54214 5.46802 11.5774 93.8554
18 6 3.44011 5.27187 2.26512 -33.8302 1.75027 -19.6113
19 2 1.3106 5.54497 1.90006 65.6456 85.6361 -35.6286
20 7 1.19878 6.62456 2.00046 0.312572 -34.2506 -14.4729
21 7 0.669716 5.10704 1.13482 -35.1997 -14.8774 -41.5047
22 7 0.911195 5.1904 2.85025 -11.465 -38.4969 73.1131
ITEM: TIMESTEP
1
ITEM: NUMBER OF ATOMS
22
ITEM: BOX BOUNDS pp pp pp
-5.0000000000000000e+01 5.0000000000000000e+01
-5.0000000000000000e+01 5.0000000000000000e+01
-5.0000000000000000e+01 5.0000000000000000e+01
ITEM: ATOMS id type x y z fx fy fz
1 1 5.65914 2.06051 -2.48646 8.45819 -2.03138 5.57679
2 2 6.21395 2.99857 -2.50467 6.24634 18.9968 43.1466
3 1 5.70058 3.59076 -3.26221 8.24638 2.64699 3.58564
4 1 7.27036 2.88678 -2.7488 -2.60923 -5.04649 -2.81385
5 3 6.13184 3.71204 -1.08638 -7.02148 -20.903 -40.0204
6 4 6.8554 3.56914 -0.109263 21.9526 -23.4268 -18.1655
7 5 5.11245 4.49753 -0.9895 -37.7684 35.0974 -10.0685
8 6 4.51565 4.7301 -1.77042 5.15055 -13.4288 -9.63422
9 2 4.66112 5.12315 0.218384 57.8205 -5.97783 37.4977
10 7 4.96026 4.43957 1.01296 11.7901 11.6076 7.79393
11 2 5.29427 6.53259 0.330189 0.879685 -22.3965 -5.69348
12 1 5.25697 6.99556 1.31628 -17.4617 -3.60202 -3.58398
13 1 6.36707 6.43734 0.162474 -1.92575 2.91921 -10.5825
14 1 4.75358 7.04412 -0.46611 14.1858 19.4258 8.09725
15 3 3.2254 5.13166 0.369515 -40.3605 -10.8326 -57.2689
16 4 2.51916 4.98453 -0.611895 -12.0518 5.25135 -11.7215
17 5 2.74056 5.25469 1.54125 -37.1018 14.1057 79.3113
18 6 3.4308 5.28475 2.27797 -3.67825 1.23518 4.69526
19 2 1.30664 5.54815 1.89928 18.5811 0.950617 -7.58134
20 7 1.20974 6.6307 1.98174 -5.10996 -1.07824 -10.7605
21 7 0.674372 5.10634 1.12913 -4.0613 7.23527 0.14717
22 7 0.933114 5.20745 2.86494 15.8391 -10.7483 -1.95682
