22
 Atoms. Timestep: 0
1 5.67363 2.04982 -2.4751
2 6.21421 2.99577 -2.50742
1 5.71144 3.61919 -3.2468
1 7.27145 2.90258 -2.75575
3 6.13085 3.71666 -1.08106
4 6.85288 3.57395 -0.103401
5 5.11667 4.49944 -0.986393
6 4.53653 4.71698 -1.78403
2 4.65839 5.12036 0.220446
7 4.93289 4.44751 1.03287
2 5.2888 6.53387 0.325272
1 5.27807 7.01508 1.30324
1 6.35892 6.44612 0.137534
1 4.76832 7.02797 -0.495135
3 3.23011 5.13368 0.363217
4 2.5218 4.97773 -0.614118
5 2.73504 5.25542 1.54214
6 3.44011 5.27187 2.26512
2 1.3106 5.54497 1.90006
7 1.19878 6.62456 2.00046
7 0.669716 5.10704 1.13482
7 0.911195 5.1904 2.85025
22
 Atoms. Timestep: 1
1 5.65914 2.06051 -2.48646
2 6.21395 2.99857 -2.50467
1 5.70058 3.59076 -3.26221
1 7.27036 2.88678 -2.7488
3 6.13184 3.71204 -1.08638
4 6.8554 3.56914 -0.109263
5 5.11245 4.49753 -0.9895
6 4.51565 4.7301 -1.77042
2 4.66112 5.12315 0.218384
7 4.96026 4.43957 1.01296
2 5.29427 6.53259 0.330189
1 5.25697 6.99556 1.31628
1 6.36707 6.43734 0.162474
1 4.75358 7.04412 -0.46611
3 3.2254 5.13166 0.369515
4 2.51916 4.98453 -0.611895
5 2.74056 5.25469 1.54125
6 3.4308 5.28475 2.27797
2 1.30664 5.54815 1.89928
7 1.20974 6.6307 1.98174
7 0.674372 5.10634 1.12913
7 0.933114 5.20745 2.86494
