22
 Atoms. Timestep: 0
1 4.54718 8.17572 -1.23729
2 3.83987 7.72538 -0.540867
1 3.05026 7.1987 -1.07679
1 3.3004 8.51464 -0.0172891
3 4.64232 6.83265 0.337655
4 4.578 7.10464 1.49811
5 5.09598 5.78178 -0.162429
6 4.95375 5.89963 -1.15539
2 5.18033 4.43186 0.337452
7 6.25376 4.24439 0.364003
2 4.76349 4.15203 1.73917
1 5.01314 3.13072 2.02674
1 5.43585 4.66506 2.42679
1 3.74288 4.46929 1.9532
3 4.32042 3.64129 -0.683281
4 3.4838 4.15621 -1.43815
5 4.47897 2.28453 -0.593732
6 5.21564 1.88827 -0.027695
2 3.71086 1.3613 -1.34073
7 4.26301 1.1235 -2.24995
7 3.47298 0.40792 -0.868947
7 2.86637 1.90046 -1.76997
22
 Atoms. Timestep: 1
1 4.52727 8.17595 -1.25456
2 3.83755 7.72598 -0.540475
1 3.05859 7.19095 -1.08367
1 3.30902 8.51272 -0.00215025
3 4.64222 6.82944 0.333944
4 4.58046 7.10008 1.49295
5 5.09278 5.77916 -0.165035
6 4.932 5.91188 -1.15328
2 5.184 4.43458 0.333988
7 6.2553 4.23362 0.34001
2 4.767 4.15123 1.7463
1 4.99028 3.12765 2.0472
1 5.44532 4.64908 2.43922
1 3.7501 4.4736 1.97011
3 4.31685 3.63847 -0.675768
4 3.48144 4.16301 -1.43571
5 4.48459 2.28409 -0.59591
6 5.21315 1.90246 -0.00968226
2 3.70698 1.3623 -1.34268
7 4.26654 1.13965 -2.25121
7 3.48376 0.409428 -0.862787
7 2.88045 1.92812 -1.77256
