14
 Atoms. Timestep: 0
1 -4.65104 -4.06292 9.04452
2 -4.27707 -3.13362 8.52275
2 -5.12199 -3.84951 10.0637
2 -5.39047 -4.53922 8.38879
1 -3.41372 -5.0311 9.23456
2 -3.23987 -5.50793 8.2323
2 -2.54002 -4.40078 9.49258
1 -3.48972 -6.11114 10.2588
2 -4.2497 -6.8197 9.97306
2 -3.72992 -5.77565 11.2875
1 -2.21435 -7.04766 10.3608
2 -1.11711 -6.64829 10.4947
2 -2.50023 -7.86258 11.0533
2 -2.19317 -7.53046 9.38656
14
 Atoms. Timestep: 1
1 -4.65072 -4.06304 9.04494
2 -4.28007 -3.1373 8.52602
2 -5.11921 -3.84946 10.0567
2 -5.39044 -4.5386 8.38992
1 -3.41367 -5.0305 9.23386
2 -3.23923 -5.50564 8.23649
2 -2.54158 -4.40236 9.49134
1 -3.48929 -6.11174 10.2595
2 -4.25267 -6.81929 9.97283
2 -3.72984 -5.77465 11.2845
1 -2.21417 -7.0474 10.3606
2 -1.12938 -6.65016 10.4953
2 -2.49693 -7.86079 11.053
2 -2.19197 -7.53117 9.38644
