14
 Atoms. Timestep: 0
1 -5.60648 -0.21031 2.13683
2 -4.57572 -0.12663 1.67974
2 -5.78699 0.696685 2.70622
2 -6.19408 -0.472533 1.25988
1 -5.48375 -1.47321 3.03942
2 -6.26288 -1.51337 3.85827
2 -5.77272 -2.31151 2.35703
1 -4.04741 -1.73034 3.50116
2 -3.7634 -0.759384 4.07023
2 -3.36477 -1.74182 2.68213
1 -3.82736 -2.95608 4.41761
2 -4.06636 -3.94798 3.9103
2 -2.85158 -3.15721 4.92913
2 -4.59668 -2.84505 5.1828
14
 Atoms. Timestep: 1
1 -5.60546 -0.210952 2.13682
2 -4.58124 -0.124817 1.68173
2 -5.78926 0.697721 2.70498
2 -6.19743 -0.46922 1.26064
1 -5.48437 -1.47353 3.03914
2 -6.25826 -1.51214 3.85483
2 -5.7713 -2.30933 2.36023
1 -4.04705 -1.72942 3.50195
2 -3.76505 -0.768411 4.06631
2 -3.36298 -1.74295 2.67915
1 -3.82766 -2.95681 4.41754
2 -4.06532 -3.94119 3.91215
2 -2.85415 -3.15324 4.9264
2 -4.59558 -2.84604 5.18398
