22
 Atoms. Timestep: 0
1 0.525339 3.34676 0.278872
2 1.12569 3.64387 1.13876
1 1.14802 2.98734 2.00857
1 0.678167 4.58129 1.469
3 2.6052 3.80506 0.867064
4 3.29258 2.84389 1.0592
5 2.91153 4.96974 0.277074
6 2.14865 5.61856 0.40801
2 4.06106 5.51613 -0.580495
7 3.79726 5.45057 -1.63606
2 4.25458 7.03374 -0.24982
1 5.00856 7.13435 0.530878
1 4.61352 7.41479 -1.20588
1 3.32427 7.5493 -0.0114355
3 5.48054 4.80615 -0.743517
4 5.69433 3.66335 -0.458205
5 6.44888 5.60996 -1.06763
6 6.22599 6.58775 -1.18739
2 7.92099 5.44332 -1.16393
7 8.36454 6.22859 -0.551799
7 8.34838 4.53683 -0.735312
7 8.25506 5.63727 -2.18319
22
 Atoms. Timestep: 1
1 0.516179 3.34683 0.285999
2 1.12471 3.64549 1.13958
1 1.12706 2.96106 1.9879
1 0.687091 4.58416 1.47942
3 2.60576 3.80112 0.861875
4 3.29522 2.83927 1.05357
5 2.90684 4.96875 0.274256
6 2.14701 5.61834 0.418415
2 4.06272 5.51862 -0.584168
7 3.82025 5.44102 -1.64402
2 4.25654 7.03262 -0.243997
1 4.99069 7.12247 0.556655
1 4.63939 7.41256 -1.19119
1 3.32953 7.54867 0.00593527
3 5.47594 4.8045 -0.735633
4 5.69185 3.66968 -0.4558
5 6.45508 5.61041 -1.07036
6 6.22298 6.5884 -1.16914
2 7.91659 5.44515 -1.16441
7 8.37294 6.23763 -0.571283
7 8.35476 4.54351 -0.736439
7 8.27532 5.65831 -2.17137
