ITEM: TIMESTEP
0
ITEM: NUMBER OF ATOMS
22
ITEM: BOX BOUNDS pp pp pp
-5.0000000000000000e+01 5.0000000000000000e+01
-5.0000000000000000e+01 5.0000000000000000e+01
-5.0000000000000000e+01 5.0000000000000000e+01
ITEM: ATOMS id type x y z fx fy fz
1 1 0.747476 6.6429 -0.255391 109.83 5.99709 22.8016
2 2 1.80708 6.72711 -0.0140446 -154.938 -99.8855 -134.031
3 1 1.75727 7.12159 1.00085 8.85529 75.9696 123.534
4 1 2.21656 7.21802 -0.896898 17.5099 16.2733 2.74802
5 3 2.29782 5.31594 0.192797 -4.36472 18.7949 -10.0851
6 4 1.63046 4.44427 0.6906 -14.0929 -10.2462 7.03827
7 5 3.50903 5.1688 -0.227909 48.1137 -33.0419 -7.4366
8 6 3.89071 6.04028 -0.56693 9.90268 -20.457 1.51902
9 2 4.32302 3.86029 -0.156089 -3.67169 54.0078 -57.155
10 7 3.94543 3.16899 0.597328 -12.1847 -13.3867 44.8244
11 2 3.99244 3.02738 -1.4365 68.8415 -42.0551 77.9645
12 1 4.38216 2.0111 -1.37817 -11.4981 14.7669 9.69671
13 1 2.92244 3.05562 -1.64242 -91.1803 -6.03063 -7.05149
14 1 4.39177 3.36163 -2.39406 44.2713 45.9497 -69.079
15 3 5.84409 4.14178 0.08999 6.72559 11.0818 -4.38493
16 4 6.50667 3.40236 0.83357 -5.45557 13.1147 -10.3057
17 5 6.34774 5.27884 -0.495706 -25.7071 -33.7475 -2.67274
18 6 5.77456 5.66658 -1.23138 -15.2719 9.02328 -11.0591
19 2 7.6065 5.93098 -0.327745 95.8331 44.4804 -24.647
20 7 7.96297 6.6007 -1.11037 -49.7085 -63.8506 71.5899
21 7 7.60833 6.41197 0.650387 -1.5692 0.728777 -17.7499
22 7 8.38917 5.1807 -0.215444 -20.2403 12.5128 -6.05837
ITEM: TIMESTEP
1
ITEM: NUMBER OF ATOMS
22
ITEM: BOX BOUNDS pp pp pp
-5.0000000000000000e+01 5.0000000000000000e+01
-5.0000000000000000e+01 5.0000000000000000e+01
-5.0000000000000000e+01 5.0000000000000000e+01
ITEM: ATOMS id type x y z fx fy fz
1 1 0.746003 6.64049 -0.262052 -2.15043 -2.16751 -3.88324
2 2 1.80366 6.72851 -0.0136335 -39.8525 -39.0212 9.34832
3 1 1.742 7.11554 1.00348 16.501 25.0292 -9.06477
4 1 2.23673 7.20536 -0.892933 8.87006 11.5551 17.252
5 3 2.29874 5.31214 0.188068 -10.5456 20.4018 -6.82101
6 4 1.63251 4.43963 0.685057 -14.2449 -10.6516 6.97557
7 5 3.50609 5.16593 -0.23095 42.3347 -38.4024 -3.06325
8 6 3.87156 6.05128 -0.551393 18.0381 -11.975 -3.70717
9 2 4.32463 3.86411 -0.159939 -16.6466 17.7995 -19.7059
10 7 3.96744 3.15512 0.586954 0.507481 18.6829 13.4244
11 2 3.99814 3.02521 -1.43048 2.44874 3.67549 -19.9279
12 1 4.36273 2.00106 -1.35112 -3.01225 2.80186 7.39024
13 1 2.92481 3.04435 -1.61944 -0.719509 -7.3425 9.23216
14 1 4.38156 3.3851 -2.38524 11.2507 13.3864 10.3078
15 3 5.84043 4.14014 0.0970355 11.2621 25.4198 -16.4109
16 4 6.50411 3.40926 0.835838 -3.11109 6.83114 -4.53324
17 5 6.35279 5.27744 -0.498035 -44.7383 -32.6577 -12.7433
18 6 5.7691 5.68097 -1.21676 -3.41023 0.39341 3.11359
19 2 7.60307 5.93344 -0.32833 52.8935 -5.65749 33.1528
20 7 7.96355 6.6007 -1.11123 -16.7296 1.83613 -4.90349
21 7 7.61997 6.41451 0.649623 -4.14906 8.33735 -1.86921
22 7 8.40927 5.20833 -0.217179 -4.79629 -8.2745 -3.56358
