14
 Atoms. Timestep: 0
1 -0.364153 -0.573647 3.29634
2 -0.548733 -1.34725 4.1229
2 -0.15651 0.450865 3.82031
2 0.461795 -1.0978 2.659
1 -1.5694 -0.416272 2.33913
2 -1.5498 0.526462 1.64293
2 -1.63713 -1.30363 1.63293
1 -2.86649 -0.47696 3.10642
2 -3.04334 0.412249 3.74782
2 -2.79008 -1.38424 3.78336
1 -4.07651 -0.559441 2.19864
2 -4.16811 -1.45071 1.5184
2 -4.92788 -0.606082 2.87699
2 -4.14277 0.404545 1.61156
14
 Atoms. Timestep: 1
1 -0.363779 -0.573873 3.29649
2 -0.548342 -1.34144 4.11733
2 -0.155782 0.440916 3.81456
2 0.456725 -1.08968 2.66574
1 -1.56947 -0.416063 2.33826
2 -1.54866 0.517728 1.65049
2 -1.63506 -1.29875 1.63683
1 -2.86654 -0.477235 3.10695
2 -3.04103 0.410021 3.74673
2 -2.79216 -1.37925 3.77993
1 -4.07677 -0.559276 2.1983
2 -4.16601 -1.44695 1.52128
2 -4.92889 -0.605802 2.87593
2 -4.14321 0.399141 1.61365
