ITEM: TIMESTEP
0
ITEM: NUMBER OF ATOMS
22
ITEM: BOX BOUNDS pp pp pp
-5.0000000000000000e+01 5.0000000000000000e+01
-5.0000000000000000e+01 5.0000000000000000e+01
-5.0000000000000000e+01 5.0000000000000000e+01
ITEM: ATOMS id type x y z fx fy fz
1 1 7.48367 7.6405 0.678115 97.239 22.4806 -14.2341
2 2 6.41496 7.44936 0.775159 -98.4192 -90.0222 33.1717
3 1 5.81274 8.3416 0.603902 -16.7868 24.7734 -3.94444
4 1 6.28207 7.03393 1.77409 -1.8575 15.9513 -18.4518
5 3 6.01259 6.32587 -0.218431 23.7813 -13.8269 -12.8165
6 4 6.69 6.23514 -1.238 -14.1756 4.95642 -2.95963
7 5 5.12021 5.35146 0.0933772 8.09032 28.3672 106.429
8 6 4.9073 5.32088 1.08021 7.40579 1.71202 -95.3689
9 2 4.53543 4.31989 -0.777941 9.68534 33.1656 -50.3178
10 7 4.54721 4.63546 -1.82119 -9.29254 -9.47849 55.5542
11 2 5.40232 3.03524 -0.729847 9.75504 -99.2237 47.6425
12 1 4.89447 2.12948 -1.06119 25.4278 61.1905 -4.63095
13 1 6.42846 3.08992 -1.09335 -45.4036 10.3611 6.47031
14 1 5.47217 2.67506 0.296551 5.66704 31.3149 -40.4258
15 3 3.09058 4.17242 -0.237553 -8.11291 -36.4313 18.7681
16 4 2.19558 4.98052 -0.352846 -2.37037 21.086 -19.7041
17 5 2.88009 3.10561 0.545595 -30.0283 0.894967 -20.3635
18 6 3.71441 2.56525 0.724529 35.758 -27.4773 7.92545
19 2 1.62459 2.5335 1.06317 70.8526 89.4416 -6.17683
20 7 1.72885 2.6427 2.14266 -8.14494 9.40858 61.818
21 7 0.746818 3.03634 0.657252 -53.6335 37.8118 -22.1673
22 7 1.48193 1.46545 0.898807 -5.43703 -116.456 -26.2174
ITEM: TIMESTEP
1
ITEM: NUMBER OF ATOMS
22
ITEM: BOX BOUNDS pp pp pp
-5.0000000000000000e+01 5.0000000000000000e+01
-5.0000000000000000e+01 5.0000000000000000e+01
-5.0000000000000000e+01 5.0000000000000000e+01
ITEM: ATOMS id type x y z fx fy fz
1 1 7.47959 7.64151 0.663767 -4.12606 6.39782 -4.30241
2 2 6.41253 7.45093 0.778483 -14.3071 -43.2373 -12.9225
3 1 5.79215 8.32493 0.580074 3.85626 -2.01809 5.7327
4 1 6.29822 7.0212 1.77365 -6.21475 9.43774 2.86891
5 3 6.014 6.3215 -0.223207 23.4082 -12.1865 -6.81462
6 4 6.69205 6.2307 -1.24367 -14.4328 4.87994 -1.67445
7 5 5.11667 5.3495 0.0920366 31.6251 36.8155 13.0469
8 6 4.88763 5.33648 1.07564 -12.4119 -2.17857 -4.19049
9 2 4.53727 4.32335 -0.781673 8.83516 6.2683 4.89267
10 7 4.56982 4.6224 -1.82934 -11.6161 8.43379 3.6095
11 2 5.40699 3.03207 -0.724353 -11.8722 -26.29 38.4581
12 1 4.8827 2.12907 -1.03712 -0.341455 8.33988 -24.5089
13 1 6.44034 3.08206 -1.06756 -6.34626 11.2954 -8.26678
14 1 5.45395 2.69549 0.311316 11.2984 13.2694 4.80929
15 3 3.08666 4.16995 -0.230104 -1.73223 -22.207 5.56654
16 4 2.19306 4.98752 -0.350701 0.536357 14.4914 -16.978
17 5 2.88508 3.10472 0.543001 -3.12011 -28.6395 -3.50466
18 6 3.71955 2.57207 0.743091 -1.65333 -2.61398 -1.7003
19 2 1.62072 2.53675 1.06291 15.9809 10.4971 6.62543
20 7 1.73806 2.6579 2.13978 -15.715 1.99005 1.71314
21 7 0.747648 3.04657 0.655571 1.81833 3.93543 3.84513
22 7 1.5051 1.46631 0.892889 6.53064 3.31928 -6.30516
