22
 Atoms. Timestep: 0
1 4.03605 1.45845 -1.56797
2 3.47701 1.44105 -0.632408
1 3.82046 0.565715 -0.081109
1 2.44753 1.51719 -0.98237
3 3.60428 2.62198 0.308124
4 3.59464 2.38971 1.50766
5 3.44616 3.85613 -0.320584
6 3.56293 3.95152 -1.31927
2 3.7745 5.22308 0.256065
7 2.83927 5.78113 0.301043
2 4.26453 5.17994 1.7129
1 3.51315 4.8335 2.42248
1 5.17958 4.60047 1.8354
1 4.41596 6.21783 2.00947
3 4.83325 5.98333 -0.68583
4 5.42612 5.33985 -1.54574
5 5.1275 7.22395 -0.551062
6 4.3417 7.70322 -0.135216
2 6.25027 8.06435 -0.90782
7 7.23449 7.83534 -0.499196
7 6.428 7.79132 -1.948
7 6.01107 9.12778 -0.908819
22
 Atoms. Timestep: 1
1 4.01426 1.45797 -1.57793
2 3.47768 1.44412 -0.629255
1 3.79972 0.544095 -0.105472
1 2.44792 1.49809 -0.982512
3 3.60482 2.61842 0.302653
4 3.597 2.38536 1.50208
5 3.44301 3.85385 -0.321613
6 3.54211 3.96292 -1.3208
2 3.77803 5.22473 0.252795
7 2.84269 5.78371 0.280832
2 4.26891 5.17832 1.71991
1 3.51611 4.82842 2.42629
1 5.18369 4.60164 1.85674
1 4.39608 6.21591 2.02867
3 4.82955 5.98004 -0.67892
4 5.42363 5.3465 -1.54332
5 5.13125 7.22455 -0.551995
6 4.35516 7.70883 -0.123896
2 6.24566 8.06704 -0.908642
7 7.23788 7.8491 -0.513556
7 6.43999 7.79506 -1.94612
7 6.03878 9.13723 -0.907913
