14
 Atoms. Timestep: 0
1 -0.332114 -0.501609 3.26349
2 -0.42957 -1.32793 4.03452
2 -0.50655 0.431224 3.84693
2 0.698475 -0.675141 2.85365
1 -1.55078 -0.591442 2.29931
2 -1.46001 0.328737 1.62431
2 -1.42474 -1.48463 1.62725
1 -2.91042 -0.569998 3.0905
2 -2.88975 0.318914 3.70848
2 -2.88515 -1.52932 3.71784
1 -4.23997 -0.67657 2.28302
2 -4.1727 -1.62095 1.72333
2 -5.22055 -0.839298 2.82505
2 -4.42753 0.203292 1.64606
14
 Atoms. Timestep: 1
1 -0.332421 -0.502094 3.26404
2 -0.429199 -1.32347 4.0302
2 -0.502349 0.429236 3.84501
2 0.694039 -0.671848 2.85363
1 -1.55058 -0.591112 2.29874
2 -1.46179 0.322347 1.62835
2 -1.42642 -1.48125 1.63058
1 -2.91029 -0.570783 3.09061
2 -2.89115 0.319088 3.7102
2 -2.88543 -1.52144 3.71551
1 -4.24025 -0.676737 2.28302
2 -4.17272 -1.61843 1.7217
2 -5.2139 -0.837474 2.82525
2 -4.42604 0.201324 1.64586
