22
 Atoms. Timestep: 0
1 7.6624 3.47584 1.47733
2 6.65861 3.49627 1.9017
1 6.73121 4.27103 2.66497
1 6.58057 2.58084 2.48821
3 5.55349 3.71517 0.883708
4 5.28935 2.87229 -0.030877
5 4.6551 4.68545 1.12592
6 4.73021 5.22226 1.97815
2 3.31738 4.85486 0.59038
7 2.87689 3.86201 0.499122
2 2.42376 5.75706 1.49348
1 3.04327 6.64269 1.63479
1 1.50386 5.96172 0.945751
1 2.20882 5.35534 2.48369
3 3.56238 5.44803 -0.847638
4 3.34839 6.61199 -1.09222
5 4.26687 4.70611 -1.82203
6 4.43519 3.71446 -1.73044
2 4.75383 5.2128 -3.02123
7 4.39258 6.24079 -2.99247
7 5.83967 5.19931 -2.9271
7 4.2827 4.82483 -3.92435
22
 Atoms. Timestep: 1
1 7.65081 3.47204 1.45682
2 6.65704 3.49651 1.90393
1 6.71392 4.27515 2.66458
1 6.59507 2.57474 2.48237
3 5.55358 3.71035 0.878525
4 5.29199 2.86815 -0.0359892
5 4.65155 4.68401 1.12502
6 4.71127 5.22594 1.97522
2 3.319 4.85723 0.586725
7 2.90237 3.85573 0.479327
2 2.42933 5.75352 1.49982
1 3.03373 6.64591 1.66247
1 1.505 5.95718 0.959242
1 2.19252 5.37265 2.49328
3 3.55937 5.44527 -0.841189
4 3.34562 6.61906 -1.08962
5 4.27127 4.70593 -1.82351
6 4.43434 3.71593 -1.70773
2 4.75054 5.21616 -3.02025
7 4.40824 6.25098 -3.01196
7 5.83662 5.20162 -2.92898
7 4.3009 4.84047 -3.93936
