ITEM: TIMESTEP
0
ITEM: NUMBER OF ATOMS
22
ITEM: BOX BOUNDS pp pp pp
-5.0000000000000000e+01 5.0000000000000000e+01
-5.0000000000000000e+01 5.0000000000000000e+01
-5.0000000000000000e+01 5.0000000000000000e+01
ITEM: ATOMS id type x y z fx fy fz
1 1 1.84013 3.91747 -3.08576 9.0647 18.5356 69.2056
2 2 1.89148 4.11086 -2.01428 -20.8918 -137.008 -63.7634
3 1 1.2354 3.3903 -1.52598 50.5174 38.1672 -27.016
4 1 1.47426 5.07655 -1.72885 -38.7581 93.0811 16.7371
5 3 3.31342 4.10898 -1.51044 64.5998 -30.4385 -18.5072
6 4 4.31589 4.16596 -2.30944 -64.176 7.26248 33.3677
7 5 3.43907 3.77898 -0.201235 -132.801 -14.3193 -41.8228
8 6 2.56038 3.48832 0.203141 74.5879 24.8821 -16.2979
9 2 4.58821 3.87987 0.542922 102.3 -52.5975 -35.4575
10 7 4.41589 3.32642 1.46601 -14.5894 -0.921786 54.6687
11 2 5.7077 2.89111 -0.0464578 -33.8777 -0.217552 78.0689
12 1 6.42562 2.49881 0.673811 -10.536 16.9603 -4.94568
13 1 5.3085 2.02206 -0.569422 -28.7497 -32.5496 -4.99511
14 1 6.18797 3.31606 -0.927851 46.8748 45.7386 -58.1541
15 3 5.12548 5.29102 0.68111 -6.25033 55.1722 -11.3713
16 4 5.40501 6.00852 -0.310977 -0.405839 -17.6527 30.4873
17 5 5.06788 5.80196 1.92221 -29.7036 -7.46127 45.6897
18 6 4.72501 5.16642 2.62835 16.0469 19.3503 -24.1159
19 2 5.09068 7.2423 2.35927 142.93 61.3899 -33.7903
20 7 5.15496 7.92321 1.51054 5.85076 -65.0962 66.4632
21 7 4.20817 7.66095 2.84302 -48.6246 -2.5593 25.0319
22 7 5.90894 7.41527 3.0583 -83.4086 -19.7178 -79.483
ITEM: TIMESTEP
1
ITEM: NUMBER OF ATOMS
22
ITEM: BOX BOUNDS pp pp pp
-5.0000000000000000e+01 5.0000000000000000e+01
-5.0000000000000000e+01 5.0000000000000000e+01
-5.0000000000000000e+01 5.0000000000000000e+01
ITEM: ATOMS id type x y z fx fy fz
1 1 1.81774 3.91766 -3.08279 8.94979 7.79753 -1.30317
2 2 1.8904 4.11161 -2.01264 -18.4463 7.52783 -1.61267
3 1 1.22877 3.3764 -1.55459 12.0321 -3.86315 6.50829
4 1 1.48275 5.07983 -1.72198 -1.60246 2.94462 -8.8781
5 3 3.31554 4.10432 -1.51532 59.9787 -32.037 -17.434
6 4 4.31729 4.16155 -2.31464 -63.7015 6.78068 33.3944
7 5 3.43343 3.77639 -0.204789 -56.611 8.79783 -68.1523
8 6 2.55465 3.50872 0.21498 6.32002 2.37364 12.626
9 2 4.59166 3.88184 0.539449 88.9901 -82.6763 4.87705
10 7 4.4374 3.31514 1.45768 -9.57667 24.1819 15.9017
11 2 5.71161 2.88966 -0.0404339 -21.6778 9.45971 -17.3618
12 1 6.40639 2.48922 0.69782 0.486505 14.6666 0.986936
13 1 5.32383 2.00529 -0.546012 -15.1964 1.23625 11.4823
14 1 6.1783 3.33949 -0.916765 12.1627 7.41672 11.8131
15 3 5.12159 5.29015 0.688034 -1.27701 60.62 -27.5987
16 4 5.40252 6.01501 -0.308176 -2.83872 -23.2075 37.0092
17 5 5.07287 5.80095 1.9206 -20.1209 21.2502 34.7486
18 6 4.72605 5.18296 2.64026 4.69503 -5.7187 -2.19198
19 2 5.08807 7.24506 2.35853 13.8769 5.56173 -15.9138
20 7 5.16707 7.92294 1.50863 8.50677 -7.26289 -5.97993
21 7 4.21004 7.6628 2.85113 -7.58852 -22.062 1.42049
22 7 5.91592 7.43621 3.04132 2.63866 -3.78766 -4.34152
