22
 Atoms. Timestep: 0
1 2.18997 1.59672 -0.034011
2 2.29885 2.40227 -0.760186
1 1.24111 2.65283 -0.840853
1 2.69778 1.9607 -1.67341
3 2.91056 3.50318 0.054828
4 2.26226 4.56135 0.377407
5 4.24532 3.44621 0.354034
6 4.61891 2.51459 0.466356
2 4.90107 4.67218 0.928556
7 4.25012 5.09998 1.69102
2 5.99461 3.99423 1.77908
1 6.23678 4.68008 2.5909
1 5.53061 3.15542 2.29792
1 6.85531 3.72174 1.1683
3 5.3548 5.72091 -0.107201
4 6.58334 5.83562 -0.155817
5 4.5269 6.2945 -1.03274
6 3.57122 6.00296 -0.885183
2 4.89472 6.95996 -2.2423
7 4.73689 8.03649 -2.17692
7 5.91193 6.72096 -2.55258
7 4.21387 6.54114 -2.98333
22
 Atoms. Timestep: 1
1 2.16731 1.59027 -0.0451044
2 2.2967 2.40477 -0.757813
1 1.2356 2.62926 -0.866252
1 2.71331 1.95443 -1.65877
3 2.91225 3.50047 0.0504172
4 2.26474 4.55608 0.371399
5 4.24015 3.44547 0.350778
6 4.60788 2.51405 0.482455
2 4.90395 4.67301 0.924298
7 4.25664 5.10228 1.68903
2 5.99665 3.9934 1.78576
1 6.22173 4.66619 2.61328
1 5.55733 3.15001 2.31848
1 6.85975 3.72737 1.17553
3 5.3517 5.71899 -0.100391
4 6.58074 5.84266 -0.153603
5 4.53192 6.29287 -1.034
6 3.57354 6.01897 -0.870933
2 4.89175 6.96282 -2.2417
7 4.7493 8.04235 -2.19257
7 5.91172 6.72661 -2.54497
7 4.22355 6.5581 -3.00183
