ITEM: TIMESTEP
0
ITEM: NUMBER OF ATOMS
14
ITEM: BOX BOUNDS pp pp pp
-2.2206855000000001e+01 1.8793144999999999e+01
-1.9677098999999998e+01 2.1322901000000002e+01
-1.9241968000000000e+01 2.1758032000000000e+01
ITEM: ATOMS id type x y z fx fy fz
1 1 -2.70635 -3.49679 10.1907 12.0535 1.58272 15.4413
2 2 -1.63743 -3.39293 9.99245 -1.35476 -3.00264 -1.88486
3 2 -2.78256 -3.81088 11.2563 -1.02893 13.5057 -12.5594
4 2 -3.11359 -2.49317 10.005 -6.45577 -8.38088 3.96717
5 1 -3.31294 -4.61276 9.35849 -25.5194 -56.8272 -46.7796
6 2 -3.29228 -4.43381 8.20051 0.74506 1.40611 56.2013
7 2 -2.63539 -5.54685 9.48063 -30.0072 36.8245 -2.88741
8 1 -4.83958 -4.98645 9.80692 49.3906 49.0124 47.7837
9 2 -5.41106 -4.0052 9.96341 15.7736 -33.3057 -10.7813
10 2 -4.78364 -5.41132 10.8852 -6.27924 8.10428 -47.5834
11 1 -5.54468 -5.86309 8.79471 -0.532443 -46.8542 -11.2852
12 2 -5.01192 -6.86599 8.62731 -13.4723 36.9841 4.58301
13 2 -6.53273 -6.15296 9.18196 4.27153 5.63741 -4.04318
14 2 -5.68505 -5.35926 7.81953 2.41564 -4.68647 9.8278
ITEM: TIMESTEP
1
ITEM: NUMBER OF ATOMS
14
ITEM: BOX BOUNDS pp pp pp
-2.2206855000000001e+01 1.8793144999999999e+01
-1.9677098999999998e+01 2.1322901000000002e+01
-1.9241968000000000e+01 2.1758032000000000e+01
ITEM: ATOMS id type x y z fx fy fz
1 1 -2.70614 -3.49676 10.191 11.6357 0.922799 12.8984
2 2 -1.63772 -3.39355 9.99206 -1.07419 -2.80845 -1.86428
3 2 -2.78278 -3.80808 11.2537 -1.10881 12.6347 -10.3436
4 2 -3.11493 -2.49491 10.0058 -6.51642 -7.62367 3.73014
5 1 -3.31338 -4.61375 9.35767 -28.5691 -50.9862 -38.2767
6 2 -3.29213 -4.43352 8.21218 0.74755 2.31878 48.025
7 2 -2.64162 -5.53921 9.48003 -25.9975 31.087 -2.38694
8 1 -4.83871 -4.98559 9.80776 50.1909 45.1466 39.1538
9 2 -5.40779 -4.01211 9.96117 13.2155 -28.4027 -9.75076
10 2 -4.78494 -5.40964 10.8754 -5.7181 5.93425 -40.9182
11 1 -5.54469 -5.8639 8.79451 -1.58474 -40.881 -8.79997
12 2 -5.01472 -6.85831 8.62826 -10.8388 31.6213 3.70473
13 2 -6.53184 -6.15179 9.18113 3.37806 5.15622 -3.68859
14 2 -5.68455 -5.36024 7.82157 2.24002 -4.11956 8.51694
