ITEM: TIMESTEP
0
ITEM: NUMBER OF ATOMS
22
ITEM: BOX BOUNDS pp pp pp
-5.0000000000000000e+01 5.0000000000000000e+01
-5.0000000000000000e+01 5.0000000000000000e+01
-5.0000000000000000e+01 5.0000000000000000e+01
ITEM: ATOMS id type x y z fx fy fz
1 1 2.0012 5.70578 3.22401 3.96399 4.92158 64.3519
2 2 1.97316 5.49447 2.15506 -75.3159 -34.2131 -122.878
3 1 1.09904 5.96404 1.70393 45.2633 -18.4446 31.4089
4 1 1.85233 4.46055 1.83179 11.9903 61.9003 41.5737
5 3 3.16461 6.08003 1.45703 62.7293 -27.973 5.1516
6 4 4.11137 6.68503 2.05062 -52.276 -15.5676 -20.2818
7 5 3.27628 5.47894 0.250205 49.2257 20.0212 -18.8515
8 6 2.50958 4.85643 0.0386417 -0.780627 0.606449 -3.12082
9 2 4.50985 5.31256 -0.668445 -68.3564 -16.7171 -8.06926
10 7 4.12794 5.66644 -1.62605 4.9436 -6.1313 8.25488
11 2 5.66085 6.29238 -0.399548 -73.8985 -34.8718 100.446
12 1 6.31674 6.53013 -1.23703 75.8159 21.6976 -115.489
13 1 5.37922 7.23582 0.0681078 -15.2838 15.3869 -0.16754
14 1 6.28367 5.80257 0.348972 24.0271 -16.1595 26.6811
15 3 4.83054 3.76305 -0.933241 81.0165 23.8583 -53.3943
16 4 4.5671 2.88149 -0.181115 -35.202 -20.5539 33.3223
17 5 5.67436 3.41973 -1.98868 -23.2632 21.2111 -0.133263
18 6 6.18475 4.16554 -2.43965 -5.77286 19.3333 1.08011
19 2 6.04547 2.12946 -2.62281 170.726 93.5577 -8.57251
20 7 5.65955 1.3227 -1.99967 -30.5767 -78.497 54.0831
21 7 5.70765 2.0372 -3.65502 -20.3922 -0.346645 -30.3958
22 7 7.13277 2.14607 -2.69762 -128.584 -13.0189 15.0007
ITEM: TIMESTEP
1
ITEM: NUMBER OF ATOMS
22
ITEM: BOX BOUNDS pp pp pp
-5.0000000000000000e+01 5.0000000000000000e+01
-5.0000000000000000e+01 5.0000000000000000e+01
-5.0000000000000000e+01 5.0000000000000000e+01
ITEM: ATOMS id type x y z fx fy fz
1 1 1.97776 5.70315 3.22598 3.99283 -5.51562 -1.09575
2 2 1.97113 5.49701 2.15566 -19.4345 14.8016 -15.8487
3 1 1.09133 5.93839 1.68744 -0.61189 7.52556 7.76855
4 1 1.87135 4.45735 1.84382 3.45299 -4.05323 21.01
5 3 3.1667 6.07541 1.45257 60.7334 -25.0295 9.5929
6 4 4.11293 6.68032 2.04472 -51.6042 -15.308 -19.2947
7 5 3.27336 5.47686 0.246994 42.6766 20.1158 -18.493
8 6 2.48821 4.8718 0.0532158 6.62539 2.07721 -6.46267
9 2 4.51033 5.31515 -0.67144 -64.6768 -26.1205 1.04592
10 7 4.1535 5.65408 -1.64402 -1.08214 -1.05041 1.63412
11 2 5.66406 6.29033 -0.393134 26.1911 -5.89312 28.8912
12 1 6.31543 6.52152 -1.23597 -6.61847 -8.02872 -5.97992
13 1 5.39734 7.229 0.0925202 -12.3988 1.26235 -11.0167
14 1 6.26926 5.81315 0.377665 3.78928 -1.61611 -2.35335
15 3 4.82817 3.76163 -0.927049 90.0683 29.7677 -67.8204
16 4 4.56415 2.88795 -0.178277 -37.1141 -27.2614 38.8668
17 5 5.67945 3.41915 -1.99097 -29.6732 37.7206 9.1598
18 6 6.18126 4.18207 -2.42251 -9.78223 6.67706 3.39877
19 2 6.04334 2.13278 -2.62311 0.110654 13.693 19.021
20 7 5.6641 1.31965 -2.00416 4.77694 -3.78552 -2.51755
21 7 5.71538 2.03951 -3.65841 -9.5543 3.1238 4.61786
22 7 7.13039 2.1684 -2.69498 0.133179 -13.1025 5.87568
