ITEM: TIMESTEP
0
ITEM: NUMBER OF ATOMS
22
ITEM: BOX BOUNDS pp pp pp
-5.0000000000000000e+01 5.0000000000000000e+01
-5.0000000000000000e+01 5.0000000000000000e+01
-5.0000000000000000e+01 5.0000000000000000e+01
ITEM: ATOMS id type x y z fx fy fz
1 1 2.62532 4.68921 3.72855 -7.23262 38.3724 19.4844
2 2 2.7873 3.97432 2.92183 -23.0498 -204.4 -29.0701
3 1 1.89601 3.38873 2.69646 113.907 82.6835 33.2801
4 1 3.529 3.26717 3.2932 -74.2424 71.1312 -35.3404
5 3 3.34101 4.51564 1.60794 -24.1406 89.8543 49.4652
6 4 3.41235 5.74213 1.42128 -3.31048 -24.2401 18.9224
7 5 3.61132 3.70345 0.686132 28.373 10.642 -80.0975
8 6 3.46149 2.71241 0.810576 -9.33308 -53.2527 18.3872
9 2 3.94405 4.10541 -0.704064 -8.80199 -86.6792 -85.6876
10 7 4.08919 3.17404 -1.2514 5.65521 86.6594 62.2514
11 2 2.61829 4.47859 -1.51593 -76.188 -80.5656 99.4405
12 1 1.75234 3.81806 -1.47196 99.5621 54.4621 6.14484
13 1 2.24157 5.45059 -1.19749 -5.92193 32.0154 11.7134
14 1 2.90873 4.55796 -2.56352 23.5326 9.37286 -95.9931
15 3 5.24093 5.03742 -0.982474 -93.1719 16.1766 26.352
16 4 5.20619 6.27322 -0.814512 6.88643 -24.046 -1.26805
17 5 6.22416 4.43159 -1.55583 56.2954 33.613 -3.00882
18 6 6.13839 3.45158 -1.78458 -11.3039 -75.1842 -13.4692
19 2 7.48766 5.04956 -1.90098 52.2997 27.7548 -33.1754
20 7 7.58592 5.88672 -1.20988 9.57857 -3.93363 -1.59253
21 7 8.41245 4.47334 -1.87208 -64.7545 21.1288 2.08163
22 7 7.38478 5.53585 -2.87105 5.36144 -21.5649 31.1797
ITEM: TIMESTEP
1
ITEM: NUMBER OF ATOMS
22
ITEM: BOX BOUNDS pp pp pp
-5.0000000000000000e+01 5.0000000000000000e+01
-5.0000000000000000e+01 5.0000000000000000e+01
-5.0000000000000000e+01 5.0000000000000000e+01
ITEM: ATOMS id type x y z fx fy fz
1 1 2.59955 4.69352 3.7212 0.720713 8.25097 -12.9232
2 2 2.78618 3.9739 2.92407 13.0647 -25.8925 -11.4382
3 1 1.90255 3.38407 2.68036 -4.37391 4.96013 5.05035
4 1 3.53013 3.26589 3.28927 0.732937 0.336137 4.43394
5 3 3.34159 4.51307 1.60425 -24.6578 90.2121 52.1174
6 4 3.41455 5.73731 1.41589 -3.12161 -22.1375 19.2039
7 5 3.60809 3.70123 0.682006 18.9204 -44.3913 -67.7888
8 6 3.43835 2.7166 0.829614 0.770704 1.27029 6.12361
9 2 3.94557 4.10678 -0.708411 -20.8605 -5.44102 -28.7415
10 7 4.1149 3.18093 -1.25816 16.3058 -2.55625 10.3123
11 2 2.62146 4.47575 -1.50953 22.4095 25.7193 8.28469
12 1 1.75596 3.81626 -1.44565 13.4212 -10.3834 8.94494
13 1 2.26163 5.44722 -1.17061 3.80901 1.15659 0.511824
14 1 2.89422 4.57384 -2.56029 -2.64901 0.606691 0.971329
15 3 5.23553 5.03587 -0.974893 -76.358 25.4416 17.9373
16 4 5.20379 6.27963 -0.812126 5.60528 -32.2048 -1.2406
17 5 6.23043 4.43119 -1.55816 29.21 -35.8506 -10.8408
18 6 6.13376 3.4485 -1.77046 -1.1874 -1.73117 1.66221
19 2 7.48347 5.05173 -1.90171 14.2594 46.2015 -7.11178
20 7 7.5988 5.89915 -1.22593 6.47813 -2.18597 3.8893
21 7 8.41097 4.48011 -1.86873 -10.1222 -14.0139 4.01851
22 7 7.41019 5.55641 -2.86505 -2.37739 -7.367 -3.37665
