ITEM: TIMESTEP
0
ITEM: NUMBER OF ATOMS
14
ITEM: BOX BOUNDS pp pp pp
-2.2206855000000001e+01 1.8793144999999999e+01
-1.9677098999999998e+01 2.1322901000000002e+01
-1.9241968000000000e+01 2.1758032000000000e+01
ITEM: ATOMS id type x y z fx fy fz
1 1 -5.76225 0.221088 7.45978 -34.486 33.2544 7.45174
2 2 -5.83857 1.08839 8.17045 9.43208 -18.369 -12.7965
3 2 -5.47563 -0.666015 8.01811 -0.182707 -3.44167 -0.499168
4 2 -6.81571 0.12134 7.09887 18.0749 -3.65283 5.94458
5 1 -4.83214 0.51863 6.28475 47.9446 -13.8026 19.7545
6 2 -4.60731 1.56908 6.08077 -6.6707 1.64282 10.9582
7 2 -3.83694 0.033206 6.53126 -24.6736 15.7954 -5.69703
8 1 -5.30137 -0.068867 5.00776 13.8678 -7.8491 -83.5998
9 2 -6.18135 0.500782 4.62348 6.64071 -15.305 12.9364
10 2 -5.52051 -1.15805 5.11309 -2.81623 18.0351 -0.759213
11 1 -4.19706 0.109395 3.81924 -29.4666 2.13349 43.3866
12 2 -3.32694 -0.508203 4.14975 -10.4934 6.87955 -20.8463
13 2 -4.5852 -0.056749 2.76724 11.9756 -6.33487 28.3653
14 2 -3.87739 1.16424 3.85795 0.853543 -8.98555 -4.59944
ITEM: TIMESTEP
1
ITEM: NUMBER OF ATOMS
14
ITEM: BOX BOUNDS pp pp pp
-2.2206855000000001e+01 1.8793144999999999e+01
-1.9677098999999998e+01 2.1322901000000002e+01
-1.9241968000000000e+01 2.1758032000000000e+01
ITEM: ATOMS id type x y z fx fy fz
1 1 -5.76285 0.221668 7.45991 -30.6843 29.6775 6.25979
2 2 -5.83662 1.08458 8.16779 8.96544 -15.5836 -10.5441
3 2 -5.47567 -0.666729 8.01801 -0.394092 -2.80056 -0.807268
4 2 -6.81196 0.120582 7.10011 15.2719 -3.67487 5.03042
5 1 -4.83131 0.518389 6.28509 42.861 -11.9969 18.3211
6 2 -4.6087 1.56942 6.08304 -6.43473 1.69271 10.6977
7 2 -3.84206 0.0364842 6.53007 -20.452 13.7629 -4.62395
8 1 -5.30113 -0.0690038 5.0063 15.7848 -6.67399 -80.6544
9 2 -6.17997 0.497606 4.62617 4.79389 -13.8421 11.787
10 2 -5.52109 -1.15431 5.11293 -3.06968 15.6583 -0.72193
11 1 -4.19758 0.109432 3.81999 -29.3662 2.61679 44.4307
12 2 -3.32912 -0.506775 4.14543 -8.79072 5.65725 -19.6247
13 2 -4.58271 -0.0580637 2.77312 10.4586 -6.62542 24.8986
14 2 -3.87721 1.16238 3.857 1.0561 -7.86799 -4.44895
