ITEM: TIMESTEP
0
ITEM: NUMBER OF ATOMS
22
ITEM: BOX BOUNDS pp pp pp
-5.0000000000000000e+01 5.0000000000000000e+01
-5.0000000000000000e+01 5.0000000000000000e+01
-5.0000000000000000e+01 5.0000000000000000e+01
ITEM: ATOMS id type x y z fx fy fz
1 1 3.17013 4.28648 3.41832 -14.4092 11.078 8.85233
2 2 3.24456 5.30858 3.04702 14.0379 -170.492 -92.7198
3 1 3.66946 5.88447 3.86915 80.3617 97.1496 122.364
4 1 2.26546 5.71061 2.78657 -92.8227 36.7449 -32.9909
5 3 4.1332 5.01449 1.87598 2.60501 7.46692 -37.1485
6 4 5.22195 5.54751 1.84318 12.8115 0.108398 -7.66831
7 5 3.67922 4.209 0.870586 -39.2988 -20.7153 -1.67233
8 6 2.76365 3.798 0.984179 44.0324 27.7886 1.23278
9 2 4.36915 3.66071 -0.363668 82.4744 -45.2816 117.336
10 7 5.40177 3.43185 -0.10019 -88.2383 16.5883 -14.0126
11 2 3.68233 2.29441 -0.603122 -34.6287 9.51911 218.528
12 1 3.33786 1.77132 0.288965 50.3111 61.6387 -96.9692
13 1 2.78011 2.47415 -1.18775 -99.5021 24.2264 -58.1444
14 1 4.21818 1.63691 -1.2877 83.2282 -84.1633 -82.8322
15 3 4.5559 4.59307 -1.4721 5.01666 7.70466 -91.3171
16 4 4.2286 4.24738 -2.6517 4.13954 18.962 45.4207
17 5 5.24137 5.72118 -1.21492 -1.01529 -4.27636 105.616
18 6 5.56445 5.86259 -0.268493 -27.9745 -10.5062 -71.6723
19 2 5.54552 6.71049 -2.17055 212.746 30.9162 -73.5061
20 7 5.66764 6.19484 -3.12307 -6.08734 18.4946 37.8222
21 7 4.83125 7.49023 -2.43498 -42.7263 28.9037 8.90663
22 7 6.53727 7.14534 -2.04633 -145.061 -61.8555 -5.42445
ITEM: TIMESTEP
1
ITEM: NUMBER OF ATOMS
22
ITEM: BOX BOUNDS pp pp pp
-5.0000000000000000e+01 5.0000000000000000e+01
-5.0000000000000000e+01 5.0000000000000000e+01
-5.0000000000000000e+01 5.0000000000000000e+01
ITEM: ATOMS id type x y z fx fy fz
1 1 3.14287 4.28512 3.40877 -12.0911 4.51786 12.2248
2 2 3.24408 5.30875 3.04815 -12.9791 -33.8979 7.18588
3 1 3.66903 5.88282 3.87154 11.4572 3.38989 -10.2903
4 1 2.26273 5.7022 2.78312 2.5514 0.128408 -7.47215
5 3 4.13424 5.01049 1.87078 2.12548 9.15442 -32.5654
6 4 5.22436 5.54301 1.83745 11.8834 -0.781215 -8.01315
7 5 3.67498 4.20631 0.867631 7.28673 4.24217 -1.12964
8 6 2.75158 3.81901 0.999657 1.51983 4.96684 1.89726
9 2 4.37226 3.6628 -0.364479 -8.37588 -34.4376 96.5897
10 7 5.40799 3.4242 -0.122775 -2.17727 -0.937218 10.9247
11 2 3.68623 2.29313 -0.594651 -22.3273 1.06861 -35.5049
12 1 3.33126 1.771 0.293876 12.7624 3.17523 4.47793
13 1 2.78075 2.46916 -1.17537 -4.24552 5.96119 2.70462
14 1 4.21606 1.63337 -1.28174 13.3046 2.02592 6.96194
15 3 4.55221 4.59137 -1.46657 9.1199 16.9124 -97.3498
16 4 4.22617 4.25435 -2.6487 2.9754 16.5667 46.1351
17 5 5.24679 5.72022 -1.21563 -29.2103 -17.655 33.0188
18 6 5.55636 5.87293 -0.266451 -2.18455 -0.220652 1.4158
19 2 5.54412 6.71272 -2.17199 33.9528 24.9699 -63.8105
20 7 5.67727 6.21193 -3.13093 -2.14345 -5.00534 -1.55015
21 7 4.83434 7.49861 -2.43021 -13.8037 -5.09429 20.393
22 7 6.53147 7.15754 -2.04793 0.598916 0.949589 13.7563
