22
 Atoms. Timestep: 0
1 7.11397 5.17963 2.89901
2 6.57237 4.34507 2.45374
1 5.82528 3.8931 3.10618
1 7.26346 3.63601 1.99798
3 5.72362 4.86905 1.32012
4 6.24226 5.27787 0.301704
5 4.40893 4.72295 1.38459
6 4.06606 4.36212 2.26342
2 3.3195 5.05888 0.442211
7 2.34334 4.80716 0.856761
2 3.14477 6.55118 0.318492
1 3.05677 7.21127 1.18141
1 4.14147 6.907 0.0575565
1 2.41228 6.84904 -0.431737
3 3.26589 4.36028 -0.897058
4 2.26268 3.97484 -1.4717
5 4.3861 4.16344 -1.57579
6 5.22865 4.44786 -1.09692
2 4.50495 4.0394 -3.00604
7 5.4688 4.4241 -3.33935
7 4.38043 2.97044 -3.179
7 3.7413 4.54719 -3.59518
22
 Atoms. Timestep: 1
1 7.09918 5.19097 2.89657
2 6.57125 4.34571 2.45508
1 5.81577 3.87252 3.08233
1 7.26662 3.63292 2.01181
3 5.72467 4.86482 1.31508
4 6.24465 5.27346 0.296019
5 4.40454 4.7202 1.38297
6 4.05026 4.38207 2.26628
2 3.32221 5.06218 0.439001
7 2.34957 4.78856 0.8479
2 3.14996 6.55147 0.323051
1 3.03766 7.18695 1.20149
1 4.15544 6.89502 0.0799915
1 2.3982 6.85969 -0.403552
3 3.26256 4.35807 -0.890909
4 2.25978 3.98168 -1.469
5 4.39227 4.16312 -1.57752
6 5.22149 4.45872 -1.08241
2 4.50188 4.04127 -3.0066
7 5.46161 4.42873 -3.34848
7 4.39348 2.97041 -3.17866
7 3.75894 4.57667 -3.59778
