14
 Atoms. Timestep: 0
1 0.091114 -11.0965 7.17572
2 0.723306 -12.0231 7.06493
2 -0.258656 -10.7905 6.15937
2 -0.823565 -11.4444 7.76285
1 0.742658 -9.9665 7.92235
2 1.7229 -9.81817 7.38619
2 0.246742 -9.00747 7.71262
1 0.974039 -10.1216 9.41512
2 1.29968 -11.1453 9.75164
2 0.002938 -9.95142 9.8757
1 1.97023 -9.07504 10.0569
2 1.62555 -8.06469 9.811
2 2.20613 -9.33967 11.0998
2 2.93918 -9.14832 9.48583
14
 Atoms. Timestep: 1
1 0.0903853 -11.0973 7.17581
2 0.721545 -12.018 7.06565
2 -0.257056 -10.7913 6.1628
2 -0.818262 -11.4418 7.75867
1 0.743498 -9.96595 7.92173
2 1.71912 -9.8191 7.38984
2 0.245949 -9.00915 7.71355
1 0.974265 -10.1217 9.41583
2 1.29822 -11.1414 9.74832
2 0.00276018 -9.9522 9.87644
1 1.97045 -9.07554 10.056
2 1.62545 -8.0646 9.81475
2 2.20467 -9.33672 11.0992
2 2.93515 -9.14834 9.48926
