ITEM: TIMESTEP
0
ITEM: NUMBER OF ATOMS
22
ITEM: BOX BOUNDS pp pp pp
-5.0000000000000000e+01 5.0000000000000000e+01
-5.0000000000000000e+01 5.0000000000000000e+01
-5.0000000000000000e+01 5.0000000000000000e+01
ITEM: ATOMS id type x y z fx fy fz
1 1 7.85413 4.70284 -1.21386 62.9884 70.7333 29.1202
2 2 7.27656 3.84313 -1.5536 -32.5843 -101.131 -8.4902
3 1 7.73581 2.89331 -1.27969 -17.3303 33.2762 -3.75744
4 1 7.29013 3.92437 -2.64048 -13.6778 -1.57215 -8.13457
5 3 5.89519 4.00469 -0.926201 -24.9339 -67.4721 -101.042
6 4 4.90965 3.41494 -1.50072 43.1645 41.2977 46.4892
7 5 5.91815 4.77283 0.097652 -53.9262 24.6474 46.9748
8 6 6.8321 4.96565 0.48186 21.6367 8.35103 5.12067
9 2 4.79017 5.48876 0.751473 -24.7962 2.5674 -53.6503
10 7 4.74545 5.17677 1.79491 10.1768 -15.5925 54.7118
11 2 5.11708 6.99403 0.764098 -24.1307 -44.3989 83.4321
12 1 5.05957 7.41482 -0.239759 -9.12942 39.1653 -89.0976
13 1 4.35387 7.36838 1.44636 -15.4802 17.4289 -3.62571
14 1 6.00321 7.36751 1.27731 31.3917 -11.8859 7.19737
15 3 3.26347 5.19054 0.314016 85.3137 -2.31285 1.06767
16 4 2.74326 5.94459 -0.485433 -27.7166 3.29489 -0.202635
17 5 2.74608 4.08055 0.854757 -14.5802 30.5868 -25.9785
18 6 3.4146 3.42192 1.22812 16.4427 -17.9838 15.3379
19 2 1.36214 3.69039 0.811626 -16.8028 18.5471 -21.2534
20 7 0.866374 3.96715 -0.118815 25.658 -22.5563 28.6135
21 7 1.39196 2.63692 1.08984 -18.5264 2.64516 -8.37864
22 7 0.854943 4.30544 1.55498 -3.15751 -7.63522 5.54561
ITEM: TIMESTEP
1
ITEM: NUMBER OF ATOMS
22
ITEM: BOX BOUNDS pp pp pp
-5.0000000000000000e+01 5.0000000000000000e+01
-5.0000000000000000e+01 5.0000000000000000e+01
-5.0000000000000000e+01 5.0000000000000000e+01
ITEM: ATOMS id type x y z fx fy fz
1 1 7.84293 4.71386 -1.21921 13.1017 -8.41252 -0.278229
2 2 7.27527 3.84451 -1.551 6.33207 3.07939 -1.42142
3 1 7.7151 2.87839 -1.30348 -0.403597 5.14805 8.70034
4 1 7.30383 3.908 -2.63878 -16.0794 0.32194 0.467125
5 3 5.89576 3.99938 -0.932514 -25.356 -61.1716 -93.4976
6 4 4.91245 3.41098 -1.50575 41.3046 39.384 44.2334
7 5 5.91369 4.77082 0.0954236 -32.2853 31.4493 55.4883
8 6 6.81538 4.98262 0.498145 1.59467 0.240617 -8.13479
9 2 4.79141 5.49169 0.747683 -27.217 -22.2028 4.66569
10 7 4.7721 5.16244 1.78659 9.26054 2.90739 -0.355064
11 2 5.12116 6.99182 0.770215 -19.7148 10.3148 14.1289
12 1 5.04063 7.40984 -0.233215 -2.00277 3.11973 3.44914
13 1 4.37196 7.36198 1.47005 -8.64467 11.776 -13.4083
14 1 5.99033 7.37897 1.30196 12.6867 -22.1238 -8.1705
15 3 3.26118 5.18867 0.321157 87.5693 12.1546 -10.1058
16 4 2.74041 5.95136 -0.483033 -25.1036 -3.68586 6.65305
17 5 2.7513 4.08011 0.85208 -4.47996 2.68802 -10.4716
18 6 3.41572 3.43071 1.24822 -3.55485 1.75397 3.14242
19 2 1.35674 3.6924 0.811101 14.3177 19.1501 12.3125
20 7 0.882595 3.97571 -0.128589 4.97757 -13.8509 -3.91393
21 7 1.40008 2.63985 1.09102 -20.7078 -1.22265 -7.11416
22 7 0.878587 4.32889 1.55565 -5.59512 -10.8178 3.63058
