ITEM: TIMESTEP
0
ITEM: NUMBER OF ATOMS
14
ITEM: BOX BOUNDS pp pp pp
-2.2206855000000001e+01 1.8793144999999999e+01
-1.9677098999999998e+01 2.1322901000000002e+01
-1.9241968000000000e+01 2.1758032000000000e+01
ITEM: ATOMS id type x y z fx fy fz
1 1 -5.93873 -1.1143 6.78123 -3.26642 30.175 -25.1775
2 2 -6.00444 -1.90686 5.97675 0.128504 19.5694 19.876
3 2 -5.33554 -0.233745 6.3727 -8.52415 -32.3153 17.9484
4 2 -6.9276 -0.611817 6.93931 12.2978 -17.9679 -9.60492
5 1 -5.51126 -1.6914 8.14299 16.4552 -10.8044 5.25123
6 2 -6.15015 -2.63016 8.23602 32.2575 18.4652 2.34175
7 2 -4.35521 -1.83549 8.21228 -52.75 -4.10741 -5.78163
8 1 -5.96426 -0.756658 9.28665 -5.81173 19.9214 63.1724
9 2 -7.12625 -0.708846 9.33371 49.8275 12.4181 -11.2337
10 2 -5.39524 0.262076 9.32387 -34.4914 -39.8554 -18.6356
11 1 -5.62138 -1.261 10.7689 53.8583 -19.7194 -37.6623
12 2 -4.64689 -1.91971 10.8489 -44.8032 40.8577 -6.9916
13 2 -5.57142 -0.38611 11.4245 3.85864 -5.15804 2.08536
14 2 -6.37285 -1.89143 11.1652 -19.0366 -11.4789 4.41218
ITEM: TIMESTEP
1
ITEM: NUMBER OF ATOMS
14
ITEM: BOX BOUNDS pp pp pp
-2.2206855000000001e+01 1.8793144999999999e+01
-1.9677098999999998e+01 2.1322901000000002e+01
-1.9241968000000000e+01 2.1758032000000000e+01
ITEM: ATOMS id type x y z fx fy fz
1 1 -5.93879 -1.11377 6.78079 -3.12921 26.7372 -20.4149
2 2 -6.00441 -1.9028 5.98088 0.0456142 16.8894 17.0413
3 2 -5.33731 -0.240452 6.37643 -5.94278 -28.05 15.8895
4 2 -6.92505 -0.615546 6.93731 9.8209 -16.35 -9.13651
5 1 -5.51097 -1.69159 8.14308 11.3784 -5.94252 4.56479
6 2 -6.14345 -2.62633 8.23651 29.3712 14.8339 2.60752
7 2 -4.36616 -1.83634 8.21108 -45.2364 -4.74608 -5.30387
8 1 -5.96436 -0.756311 9.28776 -2.17685 13.0652 60.8854
9 2 -7.1159 -0.706269 9.33138 42.7775 12.4742 -10.6809
10 2 -5.4024 0.253804 9.32 -30.7007 -33.4302 -18.0136
11 1 -5.62045 -1.26134 10.7682 43.5912 -16.4699 -36.0482
12 2 -4.65618 -1.91123 10.8474 -37.3362 35.6196 -6.45604
13 2 -5.57062 -0.38718 11.425 3.84724 -5.116 1.95166
14 2 -6.3768 -1.89382 11.1661 -16.3099 -9.5146 3.11375
