ITEM: TIMESTEP
0
ITEM: NUMBER OF ATOMS
22
ITEM: BOX BOUNDS pp pp pp
-5.0000000000000000e+01 5.0000000000000000e+01
-5.0000000000000000e+01 5.0000000000000000e+01
-5.0000000000000000e+01 5.0000000000000000e+01
ITEM: ATOMS id type x y z fx fy fz
1 1 4.20863 8.02439 1.12558 107.787 27.7862 0.920525
2 2 3.18948 7.63925 1.09244 -110.453 0.0983383 2.55815
3 1 2.5688 8.40752 0.631331 8.67834 -15.2497 -10.3173
4 1 2.72889 7.65433 2.08023 -5.71843 -9.2269 37.0156
5 3 3.00484 6.30024 0.476911 -29.0523 19.3127 -104.297
6 4 2.3207 6.27537 -0.561692 -1.03421 -0.0740832 30.7502
7 5 3.80452 5.32296 0.75883 28.3522 49.9902 88.0416
8 6 4.39124 5.59398 1.53498 -14.3644 -23.1714 -27.3035
9 2 3.99706 4.04044 0.222516 13.1559 -23.2104 -25.5326
10 7 3.6621 3.29031 0.938907 -3.46738 -15.35 40.9769
11 2 3.12236 3.56259 -0.902261 -133.641 -38.6241 118.007
12 1 3.1311 4.28095 -1.72201 7.22289 60.9887 -81.2057
13 1 3.39371 2.56586 -1.2501 -14.6686 25.8526 14.8552
14 1 2.14995 3.69811 -0.428816 111.95 -38.7343 -74.0836
15 3 5.44667 3.77187 0.046698 0.481276 -66.1676 57.3697
16 4 5.98691 3.07571 0.982509 -0.0850517 44.3703 -56.5607
17 5 5.90657 4.03771 -1.1586 48.3876 -16.6384 -22.3038
18 6 5.30971 4.4739 -1.84679 -13.3545 9.52153 3.22204
19 2 7.08244 3.35971 -1.731 104.638 130.991 53.6899
20 7 7.67894 4.10187 -2.26156 -53.1418 -72.6396 57.7164
21 7 7.65335 2.87976 -0.936134 -22.9073 19.3128 -40.0226
22 7 6.76572 2.6609 -2.50524 -28.7652 -69.1378 -63.496
ITEM: TIMESTEP
1
ITEM: NUMBER OF ATOMS
22
ITEM: BOX BOUNDS pp pp pp
-5.0000000000000000e+01 5.0000000000000000e+01
-5.0000000000000000e+01 5.0000000000000000e+01
-5.0000000000000000e+01 5.0000000000000000e+01
ITEM: ATOMS id type x y z fx fy fz
1 1 4.20674 8.0265 1.11438 2.48357 -10.0385 -2.34686
2 2 3.18684 7.64239 1.09523 -17.7858 21.8143 32.5691
3 1 2.5535 8.38253 0.60618 5.28005 -6.15672 -8.56307
4 1 2.74423 7.63638 2.09131 7.94931 -6.54334 4.4569
5 3 3.00533 6.29645 0.470541 -27.6256 25.5145 -99.5581
6 4 2.32293 6.27087 -0.566925 -1.95987 0.545475 28.6751
7 5 3.80129 5.32133 0.757215 3.83963 42.0262 60.9701
8 6 4.36705 5.60441 1.54454 10.131 -15.7392 2.34001
9 2 3.99896 4.04292 0.219217 4.6136 -52.0167 2.82712
10 7 3.68592 3.27604 0.927734 4.43107 12.6399 17.924
11 2 3.12453 3.56048 -0.895542 -17.7936 35.3664 -8.1105
12 1 3.11556 4.2805 -1.71383 8.37167 -6.11939 -8.03153
13 1 3.41196 2.56121 -1.22257 -9.99625 0.840416 3.40847
14 1 2.15379 3.704 -0.421036 -11.3335 -23.761 -12.9826
15 3 5.4429 3.76889 0.0548192 9.52143 -55.6338 33.7625
16 4 5.98442 3.08302 0.984172 2.70308 37.6273 -47.7875
17 5 5.91273 4.03656 -1.16122 23.8057 -8.85403 -12.0884
18 6 5.30465 4.48839 -1.8292 -2.41703 2.5029 8.27701
19 2 7.07916 3.36368 -1.73022 2.00416 12.1323 -6.93269
20 7 7.6788 4.10004 -2.26529 4.96211 2.12349 6.58496
21 7 7.66056 2.88615 -0.941521 1.34938 -2.24911 -3.93876
22 7 6.78405 2.67158 -2.5189 -2.53417 -6.02144 8.54469
