14
Properties=species:S:1:pos:R:3:forces:R:3:energies:R:1 original_dataset_index=0 energy=23.560155868530273 pbc="F F F"
C       -1.66860998       0.23161700       2.80035996     -38.88905334     -58.21337891       7.21957064      -9.05503273
H       -0.61111701       0.34277499       2.67445993      14.23392868      -4.87646103       1.70759010       6.46186161
H       -1.99059999      -0.65975201       3.43816996      23.71145821      14.70851231     -30.64793205       6.88875771
H       -1.99735999       0.84413201       3.55086994     -12.23213387      48.53084564      17.23855209       6.86904144
C       -2.48224998       0.23800400       1.47256994      54.55906677     -30.43523216     -25.59432793      -9.19578648
H       -2.72317004      -0.82002401       1.35175002      -1.79013658       1.89781177      -5.75136042       6.90818501
H       -3.44991994       0.68149900       1.51704001     -10.63028431      17.72098732       0.74718207       6.24450636
C       -1.52102995       0.62901098       0.23334000     -65.92510986      67.97251892      45.93584824      -9.58172417
H       -1.98171997       0.62867802      -0.75701100      -4.59628105     -13.59511375       3.41567516       6.49132633
H       -0.66505098       0.04179390       0.21272901      29.81378937     -19.64544487      -0.73835450       6.63998127
C       -1.19665003       2.15968990       0.45373300      32.91907883     -22.10398674     -12.58651543     -14.25731659
H       -2.00875998       2.83825994       0.14022700       5.63994408      -6.01322031       4.60023165       6.09797382
H       -0.85747999       2.38749003       1.48850000      -9.03728962      -1.44548297     -13.33916759       6.54596472
H       -0.29372099       2.34044003      -0.17777400     -17.77698326       5.49764538       7.79301691       6.50241709
14
Properties=species:S:1:pos:R:3:forces:R:3:energies:R:1 original_dataset_index=1 energy=17.221431732177734 pbc="F F F"
C       -2.58197999       1.13712001       2.78752995       8.42083263     -65.83052063      10.29087925     -12.08864307
H       -1.75127995       1.40189004       3.48548007     -10.55131531       3.96606445     -17.85224915       6.24062729
H       -3.24293995       0.45236501       3.40155005       5.23354006      32.12852097     -10.99459743       6.92776012
H       -3.09056997       1.94059002       2.33009005     -11.77542400      24.81887817       1.67025876       6.27700043
C       -2.19566989       0.14279500       1.65048003       3.61224532     -10.46404171      24.72696114     -12.38633537
H       -1.93961000      -0.75729799       2.25049996      -5.02536726       4.56625462     -16.83018875       7.12443495
H       -3.03290009      -0.09315860       0.98825997      -0.02116749      -0.93031502       3.15321159       6.47145033
C       -0.95207101       0.49507299       0.85371703      48.65478134      34.70243073      41.71051788     -11.04066181
H       -0.42122701      -0.31018001       0.38200900      -2.27623963     -19.91610909       4.87412405       6.85838652
H       -0.22088100       0.93206298       1.61258996     -19.12071991     -14.19525337     -24.56350708       7.17516088
C       -1.08539999       1.47949004      -0.26064900     -40.90785217     -29.59600258     -39.51963043     -14.22119808
H       -0.19035700       1.84862006      -0.65762502      29.52964783       5.41274643      -7.09484053       6.49639750
H       -1.62298000       0.95489299      -1.08713996      12.81221485       7.98227501      10.82120514       6.77922344
H       -1.70236003       2.30119991      -0.11285800     -18.58517456      27.35507011      19.60785103       6.60782909
14
Properties=species:S:1:pos:R:3:forces:R:3:energies:R:1 original_dataset_index=2 energy=21.544757843017578 pbc="F F F"
C       -1.77602005      -0.13412000       2.61616993     -34.63602066      -4.78222752      82.22369385     -11.77820301
H       -0.81403702      -0.60164899       2.47538996       9.33545685       2.19417715      -5.33993149       6.48541451
H       -2.33377004      -0.88460302       3.31364012      15.93168068      34.43752670     -37.00577545       6.67242861
H       -1.70383000       0.81737000       3.23468995       8.72389889     -29.00055885     -14.71190834       6.72686625
C       -2.49720001       0.27800000       1.36554003       0.88007826     -13.02201462      15.98677540     -11.74770069
H       -3.12038994      -0.51911098       1.00908005       6.56119251     -15.93773556     -12.68563175       6.71593952
H       -3.24043012       0.99167901       1.52796996     -18.21788025      25.76435852      12.40065956       7.19247627
C       -1.48803997       0.82525498       0.43508199      52.29836655     -44.29901505     -39.64754868     -10.70632172
H       -1.97484004       0.73681903      -0.51915199       1.27484381      -1.32349658     -12.86714935       7.20526600
H       -0.57220298       0.11834300       0.39145401     -33.32327652      31.10261917       0.08456865       7.24813795
C       -1.09835994       2.27840996       0.55360001      15.38531208      33.44094849      65.87244415     -11.99055862
H       -2.00455999       2.84354997       0.33724001       4.50260782       9.49991989       3.00905633       6.53371954
H       -0.63930202       2.59153008       1.56958997     -31.66657257     -20.27336502     -32.02782822       6.69684267
H       -0.28168699       2.65966010      -0.02464100       2.95031381      -7.80113697     -25.29142761       6.29044962
14
Properties=species:S:1:pos:R:3:forces:R:3:energies:R:1 original_dataset_index=3 energy=16.938982009887695 pbc="F F F"
C       -2.53464007       0.06952430       2.53363991      39.76422501     -68.80913544      -5.27445555     -13.30405521
H       -2.67875004       0.97225302       3.07710004     -11.52681446      15.59019470       6.64624500       6.21200514
H       -2.56965995      -0.82270402       3.25750995       3.68793821      34.26911163     -21.68910789       6.50629759
H       -3.28710008      -0.19025099       1.79288995      -9.96400738      13.52728462       2.41130972       6.34834337
C       -1.15094995       0.09662890       1.76116002     -34.28269958      40.85843658       5.60013199     -10.69225597
H       -0.34470999       0.07162010       2.54936004     -11.27821255      -7.71746588     -24.73845291       6.53848076
H       -1.10292006      -0.67949301       0.98022699       5.84327412      -7.04202366      17.92045784       6.68080616
C       -1.02504003       1.43500996       0.92203701      -9.99843693     -33.01927185      52.36993790      -9.92420769
H       -0.05805450       1.21405995       0.54267299      19.82251549      18.54489517     -15.56473541       7.19343853
H       -1.05133998       2.25939989       1.65232003       9.67454147      -0.92636889      -9.78837204       6.68162584
C       -2.05251002       1.68656003      -0.17171501      26.50088310      30.33905029      -9.79229546     -14.45373917
H       -2.19082999       0.79351097      -0.74481201     -15.36482716      -9.94240379      -6.37634277       6.36069012
H       -2.92726994       2.22391009       0.18925600      -9.71469975     -14.30960941       1.89998031       6.24279881
H       -1.62325001       2.43284011      -0.87098902      -3.16367674     -11.36269093       6.37570000       6.54875278
14
Properties=species:S:1:pos:R:3:forces:R:3:energies:R:1 original_dataset_index=4 energy=22.158899307250977 pbc="F F F"
C       -1.79311001      -0.68453199       1.75138998     -77.26032257      32.56227112      21.13968277     -13.51001644
H       -2.42254996      -1.32388997       2.37381005       5.28230906      -5.79622841      -2.85219026       6.48017120
H       -0.82209200      -0.83658499       1.97976005      53.80260086     -11.97675991       7.95701790       6.80663681
H       -2.04085994      -0.88648999       0.72373700       5.83415222      -9.64800358      -8.62665653       6.85415983
C       -2.23704004       0.77681202       2.09793997      25.83923721     -35.07201004      -1.81659365     -12.21075153
H       -3.17386007       0.99072999       1.67694998     -33.48038864      -7.12334871      -2.77572322       7.81882238
H       -2.32244992       0.99697500       3.17167997       5.80377913      -4.43904591      -4.39239550       6.55147505
C       -1.39747000       1.75580001       1.36538005     -12.36096287      29.62380791      48.68582153      -8.41611481
H       -0.38841599       1.80935001       1.79974997      -5.19854069       2.29861903      -4.11012840       6.51706791
H       -2.03098989       2.64018989       1.73609996      34.94467545     -12.89729214     -29.70287704       7.88454294
C       -1.38136005       1.48776996      -0.11834000      14.59921455      10.55133438     -55.03590393     -12.28847599
H       -0.53145099       0.89915401      -0.57968497     -13.79475021      14.21868134      26.27268219       6.36406088
H       -2.25907993       0.90948302      -0.48199299       4.02306986      19.63706779       4.54738903       6.82643175
H       -1.29630005       2.50332999      -0.58458000      -8.03407097     -21.93909264       0.70987207       6.48088884
14
Properties=species:S:1:pos:R:3:forces:R:3:energies:R:1 original_dataset_index=5 energy=20.36275291442871 pbc="F F F"
C       -2.67514992       0.41888401       2.82588005     -12.50505352      20.28499222      35.50686264     -13.76308346
H       -3.49532008       0.97860700       3.28154993     -11.88293934     -16.26842499      -3.94295835       7.04421091
H       -2.02693009       0.44541901       3.67060995      21.88192177      -5.81241465       5.01605129       6.60073519
H       -2.90306997      -0.59024400       2.56118989      -7.80895996     -13.51331043      -3.78496051       6.31941080
C       -2.27768993       1.28422999       1.71227002      23.89221764     -19.57112503     -43.03116989     -10.00262070
H       -3.17937994       1.20843995       1.06193995      20.47326469       5.83212805      -1.87757218       7.02008247
H       -2.24743009       2.29292989       2.10740995       6.77050304       7.41656017      -5.64442015       6.71021032
C       -0.89501101       0.79611099       1.01492000     -23.97524452      48.65510178       3.90429497     -10.66399479
H       -0.50566900      -0.15408900       1.35441995      -6.94233799      -8.47790623       4.78410864       6.56466341
H       -0.10955500       1.51405001       1.29225004      -4.60122967      -5.30848265       2.12356234       6.65194988
C       -0.94194198       0.82803297      -0.52884299     -29.61638260     -44.18502426      43.15836334     -11.79603291
H       -1.78427005       0.20131500      -0.78671002     -13.18273830       9.24267387      -5.71065617       6.85189676
H       -1.03623998       1.77432001      -0.99666101       5.24918938      18.02255821     -11.48048687       6.08637142
H       -0.22867700       0.13390000      -0.87160099      32.24779510       3.68268061     -19.02102089       6.73895359
14
Properties=species:S:1:pos:R:3:forces:R:3:energies:R:1 original_dataset_index=6 energy=19.09225082397461 pbc="F F F"
C       -2.08635998       0.32750699       3.12435007       3.21716428     -11.05253601       2.53786278     -13.82560825
H       -3.02721000       0.89336801       3.18493009       9.38437271       3.09493852       3.62789178       6.31414175
H       -1.39364004       0.45627499       3.98160005     -11.98736191       5.53737402      -8.19192123       6.23737574
H       -2.37827992      -0.71559298       3.14849997      -5.14721346      -3.42087746       7.39949131       6.79126120
C       -1.37083006       0.44329000       1.78805995     -43.11820984       9.85160923     -25.93466759     -10.45348358
H       -0.40135401       0.81133199       1.86487997      33.81578064       7.34822702       9.18203259       7.15710688
H       -1.38039994      -0.48118299       1.27434003      12.09858227     -28.47440338       3.43534255       7.74710512
C       -2.10169005       1.23894000       0.69667798      15.48988724     -18.46261597      15.29064941     -11.44408226
H       -1.99909997       2.23885989       1.01328003     -18.61020470      24.61845207      13.62965298       7.62030840
H       -3.14833999       0.89446998       0.57240701       9.90022564      10.20071602      -2.43778324       6.49271202
C       -1.27124000       1.29674006      -0.57169503     -21.55119514      18.79722404       2.19370246     -13.49894333
H       -0.20952500       1.31505001      -0.28902999      -3.45305753      13.87692547      -9.86818409       6.80082560
H       -1.39370000       0.41622901      -1.17158997      -6.25691271      -7.42937613      -9.50080585       6.34071302
H       -1.70483994       2.22320008      -1.06169999      26.21814346     -24.48565674      -1.36326849       6.81281948
14
Properties=species:S:1:pos:R:3:forces:R:3:energies:R:1 original_dataset_index=7 energy=22.297653198242188 pbc="F F F"
C       -2.25915003       0.41352701       3.07869005      -1.62646461      43.58302307      -5.35735512     -10.25412655
H       -2.89051008       1.28945005       3.55470991      36.19783783     -43.54474258     -23.35037613       6.54572248
H       -1.77825999      -0.24120800       3.77398992       8.13095284       4.71699238      20.69717026       6.35769176
H       -2.92663002      -0.29672500       2.65289998     -19.76902199      -6.40820837      -4.63491440       7.05996513
C       -1.24708998       0.78578103       1.92211998     -10.59348202      -7.17256737      24.50747681     -11.42800426
H       -0.73967302       1.72456002       2.04061007      -8.68975353      17.24968338       5.57525682       6.68219090
H       -0.37281799       0.17563500       1.94034004       5.84663200     -20.71941566      -1.44797075       6.72160053
C       -1.96680999       0.67533898       0.60521799     -15.98096943      51.35482788      -5.14509583      -9.66772842
H       -2.90244007       1.27787995       0.78469700      10.21404457     -26.33280563     -10.89323902       7.50501156
H       -2.12039995      -0.28614199       0.19416299     -11.98177528     -27.99991035      10.40866947       6.95476770
C       -1.33718002       1.38303995      -0.55604601      25.74457550      43.65840149      -7.03065968     -13.72433567
H       -1.45141006       2.46827006      -0.42873400      -9.73981667      -6.50269985      -0.12955163       6.74775505
H       -0.23525500       1.40620005      -0.67433900     -11.58743668     -21.77532578       3.58241105       6.34502363
H       -1.85583997       1.11486995      -1.47049999       3.83467436      -0.10725861      -6.78182364       6.45212126
14
Properties=species:S:1:pos:R:3:forces:R:3:energies:R:1 original_dataset_index=8 energy=15.108160972595215 pbc="F F F"
C       -2.10535002      -0.41217601       2.73587990     -51.09450912     -20.86026764       1.51443768     -13.87423038
H       -3.11695004      -0.86695600       2.42790008      34.86677170      15.73973751      16.13866425       6.83274221
H       -2.33661008       0.36570799       3.50015998       9.74937820     -10.02479267     -11.00506687       6.32220125
H       -1.51045001      -1.23307002       3.17230010      -4.28090763       8.23007011      -1.56779015       6.26173544
C       -1.48945999       0.10437200       1.45405996     -18.40183830      49.16919327      18.64786720     -12.64302826
H       -0.45461100      -0.06278140       1.51998997      28.31786537       1.51454163      -3.58577156       6.76821041
H       -1.86776996      -0.44018000       0.64336902      -4.79386282     -22.56025887     -20.94355011       7.16617250
C       -1.86816001       1.60268998       1.15117002      -5.37225103     -27.71761703     -33.52480316     -11.06103230
H       -1.65769005       2.27744007       1.97657001      13.82449245       3.68381476      -3.00380731       6.31216145
H       -2.97485995       1.62940001       1.14077997      11.05871868       1.05152571      -5.18871880       6.81895924
C       -1.32128000       2.00573993      -0.31051001     -24.97369766      -2.49795818      84.21538544     -13.04239655
H       -0.27458200       2.17680001      -0.26016700      21.78356743     -10.61690235      -8.81427097       6.31676340
H       -1.69256997       1.31131995      -1.02669001       4.30222321      -9.70063400     -19.00278282       6.32522154
H       -1.69634998       2.96395993      -0.49569699     -14.98594475      24.58954048     -13.87977314       6.60468102
14
Properties=species:S:1:pos:R:3:forces:R:3:energies:R:1 original_dataset_index=9 energy=16.773195266723633 pbc="F F F"
C       -2.93482995      -0.34618300       2.36784005      86.22341919      -7.06716537      18.74717331     -11.57910061
H       -2.46785998      -1.36617005       2.43393993      -9.56419182      20.81561661       3.17083168       6.75168371
H       -3.92739010      -0.57800603       2.19051003     -40.36515045       3.17615557       0.93866318       6.35296249
H       -2.63887000       0.14842600       3.34598994     -22.48153687      -9.76501179     -23.86736107       6.41047001
C       -2.21649003       0.32385001       1.16728997      30.79803658     -26.08435440       2.18781352     -10.48917580
H       -1.80318999      -0.47582701       0.52163601      -9.36676788       6.84248400       5.10953569       7.00389338
H       -2.84001994       0.86918700       0.56900603     -40.51534271      17.72089195     -21.87116814       7.47273111
C       -1.05250001       1.28878999       1.40521002     -14.23882580      24.57415390      38.44375992     -12.16041756
H       -0.26905200       0.71233100       1.87993002      11.76260757      -2.58578730      -9.59351540       6.66148424
H       -1.28144002       2.01116991       2.24534988      -0.43971419     -13.18601418     -26.16950035       6.68237066
C       -0.64798701       2.05339003       0.10290000       7.53516340     -40.37448502       3.11879301     -15.40480709
H       -0.60219300       1.30367005      -0.70873702       0.53609705      10.07648945       4.97621059       6.63617897
H       -1.30088997       2.84083009      -0.23414800      -8.85735321       6.57316256       3.72617745       6.12891340
H        0.35263100       2.42719007       0.20453499       8.97355747       9.28386497       1.08258820       6.30600691
14
Properties=species:S:1:pos:R:3:forces:R:3:energies:R:1 original_dataset_index=10 energy=12.512314796447754 pbc="F F F"
C       -2.29764009      -0.46720701       2.56024003     -14.06427383      16.74808121      24.51761246     -15.09510612
H       -3.15755010       0.01579400       3.10764003      26.03700638      -0.98617494     -11.02556896       6.44521904
H       -1.78047001      -1.10176003       3.26636004       1.49809790      -5.80606604       3.32528996       6.35065556
H       -2.80616999      -1.05378997       1.85644996      -7.04123354     -22.30272865     -19.61122322       6.76954317
C       -1.30276000       0.46061301       1.86041999      -1.76743257     -38.93943405     -36.63943863     -11.45550442
H       -0.94319397       1.04297996       2.62478995      14.08827209      39.03234482      22.65713692       7.01542521
H       -0.39227501      -0.08573420       1.47019005     -24.71062851       8.88878345       9.88596725       6.72955036
C       -2.01918006       1.14944994       0.67538399     -36.77687836      16.20289803      29.40095520     -11.70596027
H       -2.99849010       1.66299999       1.04710996      40.17699051     -26.33095741     -19.44372940       7.01154041
H       -2.21720004       0.36547399      -0.07440870      -9.83825588       6.16789198       7.73119736       6.94178963
C       -1.18899000       2.16638994      -0.05050150       2.10028291       1.19616663     -27.47113419     -15.71601295
H       -0.32676899       1.62381995      -0.46136501       1.58430076      10.64155865       3.63244319       6.58040667
H       -1.78293002       2.49263000      -0.92766500       8.90755653       1.36489761       9.96217060       6.53915215
H       -0.88789397       3.05667996       0.51148498      -0.19380179      -5.87726212       3.07831645       6.10161734
14
Properties=species:S:1:pos:R:3:forces:R:3:energies:R:1 original_dataset_index=11 energy=31.480100631713867 pbc="F F F"
C       -1.67392004      -0.49618700       2.40807009     -35.81753159      -9.74525166      82.10059357      -7.36832619
H       -2.82136989      -0.63744998       2.66206002      61.48839569       9.77466393     -12.76465321       6.95901251
H       -1.09967995      -0.95236498       3.29241991     -20.23399162      30.15194321     -23.31801033       6.48472977
H       -1.43808997      -1.30455005       1.74652004       5.14157104       9.82023239     -31.32685661       6.12427807
C       -1.33790004       1.05228996       2.15402007      19.06253052     -57.64834976    -111.87079620      -6.83169079
H       -1.57875001       1.67009997       2.95179009      -1.75188923      18.55661201      32.11609650       6.40062380
H       -0.24408600       1.20581996       1.74450004     -50.11408615      -6.27801228      34.89313126       7.23892403
C       -2.27553010       1.45359004       0.91521198      24.26853752      54.38828659      58.64398956      -6.62634611
H       -2.31998992       2.61719990       0.99179697     -15.87502193     -52.55261230       2.05046368       7.45450354
H       -3.29258990       0.93273401       1.03242004      30.41941452      24.11829948     -14.79532433       6.70381784
C       -1.53760004       1.34428000      -0.41018000     -47.00112915     -25.63813782      -4.34635162     -14.51349163
H       -1.50273001       0.27517399      -0.63282001       7.34749985       3.58739638      -8.56516743       6.43455887
H       -2.20005012       1.85660994      -1.10036004       1.02353239      -5.10066319     -10.37036991       6.68121719
H       -0.60066199       1.82331002      -0.52459502      22.04216576       6.56559896       7.55325699       6.33829021
14
Properties=species:S:1:pos:R:3:forces:R:3:energies:R:1 original_dataset_index=12 energy=20.380807876586914 pbc="F F F"
C       -1.69442999      -0.54707497       2.17664003      20.67692375      34.05860519      81.54502869     -13.44968987
H       -2.54432988      -0.63279003       2.90555000      15.17207241       3.58624196     -16.17664719       6.39965391
H       -0.86180103      -1.11217999       2.64176011     -12.21351528      -4.02571583     -12.76127434       6.40573788
H       -2.03421998      -0.94141698       1.27655995      -2.54640460     -15.71939087     -31.71958351       6.59674788
C       -1.16880000       0.94141102       2.11151004     -72.29187775      -5.48050785     -13.29905415      -9.45076275
H       -1.09508002       1.48768997       3.10820007      -3.54094100     -20.21233749     -26.20665550       6.34704494
H       -0.21587101       0.92445803       1.64532006      21.98844147       3.67965722      -1.41826320       6.97958469
C       -2.18674994       1.65216005       1.09940004      -1.62324548     -55.10169983      52.38433456      -9.54655552
H       -2.07384992       2.66508007       1.35004997      -0.91576195      30.48839760      -5.53296757       6.79674149
H       -3.30099010       1.36907995       1.27198005      46.98076630      12.13818645      -4.23071623       6.92104912
C       -1.75817001       1.30648005      -0.30843401     -39.48713303     -14.52641296     -41.23168564     -13.19187927
H       -0.70359999       1.31342995      -0.55003297       7.03109026       7.34083843       5.17877007       6.29151869
H       -2.18287992       0.35022101      -0.75688797      11.62499619      23.05966568      23.10762024       6.51328087
H       -2.28526998       2.07482004      -0.87162602       9.14459324       0.71448648      -9.63890934       6.76833725
14
Properties=species:S:1:pos:R:3:forces:R:3:energies:R:1 original_dataset_index=13 energy=28.91156578063965 pbc="F F F"
C       -1.80044997       0.42166799       3.15300012     -42.33847046      -2.24258757      -0.45492956     -11.55847836
H       -2.78552008      -0.14237200       3.18881011      31.62611198       6.06463671     -15.02312660       6.44190121
H       -2.04324007       1.22221005       3.82435989       9.31415939       8.87263966      11.99319649       6.54479647
H       -0.96666598      -0.15539600       3.46515012       6.68047285     -15.47653008      22.12083626       6.75232792
C       -1.30958998       1.01605999       1.85984004     -12.28827190      41.99020386     -14.70697021     -11.28961754
H       -1.10462999       2.10203004       1.93236995      -6.78823423     -10.96658897      10.16790581       6.97233391
H       -0.30256999       0.70043999       1.66362000       6.44561815     -15.57321548      -6.65643358       7.13831043
C       -2.28954005       0.91710401       0.68304700     -35.11823273     -56.27642822     -16.16141891      -6.17715406
H       -3.25798011       1.55291998       0.84507102      49.30241776     -19.45754623     -18.70138741       6.58335304
H       -2.72046995      -0.15783200       0.64622498      17.30510902      42.54866791       8.61669731       7.14069176
C       -1.45095003       0.93119901      -0.66811800      40.81335831      67.32014465      33.46877670      -9.39056015
H       -1.98392999       0.54161400      -1.53233004       5.00067091     -10.89075851      -0.46431711       5.91795349
H       -1.29575002       2.04329991      -0.92253900      -6.72293568     -40.46142960       7.40359592       6.65204144
H       -0.33260000       0.58845299      -0.47844100     -63.23176956       4.54876614     -21.60242271       7.18366671
14
Properties=species:S:1:pos:R:3:forces:R:3:energies:R:1 original_dataset_index=14 energy=30.061676025390625 pbc="F F F"
C       -3.32096004       0.90248102       2.29001999     -85.77210236      -1.12044203     -13.56525898      -8.95454979
H       -3.29641008       1.28496003       3.27751994       5.18074036      -6.29620695      24.98103142       6.47053194
H       -4.36582994       0.43685701       2.03059006      56.45082474       7.26780891      13.92144871       6.73352671
H       -3.44917011       1.83545005       1.80930996      -2.81588054      18.46885300     -13.49428654       7.67813921
C       -2.06778002       0.31373900       1.77173996       9.93428326     -22.03847694      -5.62806320     -12.02228737
H       -1.35672998       0.13737801       2.54883003       4.58405733      -8.80512142      15.05970001       6.92223978
H       -2.25366998      -0.58049101       1.22217000      -5.10744286     -18.55937958      -0.60274655       6.93690968
C       -1.39291000       1.19915998       0.82023299       2.40390968     124.21810913     -71.27474213      -5.53259230
H       -1.32913005       2.31118989       1.21642005       4.44160986     -63.33706665      -7.50558233       7.59154367
H       -1.96029997       1.49284995      -0.13134800       2.00267911     -23.99058151      36.62995911       7.27875471
C       -0.05609780       0.78944099       0.19621600      20.14774513      13.43562984     -28.16389084     -12.47141075
H        0.59537703       0.46252900       0.96626502      12.63743591     -18.25564957       9.73106861       6.51028633
H       -0.00989965       0.18251500      -0.76666498     -12.71331501       5.67408848      35.20242691       6.27734089
H        0.48028499       1.69897997      -0.14138500     -11.37454128      -6.66156912       4.70894527       6.64324284
14
Properties=species:S:1:pos:R:3:forces:R:3:energies:R:1 original_dataset_index=15 energy=20.401809692382812 pbc="F F F"
C       -3.40213990       0.14509900       2.03254008      38.88248825      26.17517853     -48.78590775     -13.64717197
H       -4.36870003       0.10028700       1.54701996      -7.28920555      -1.85686898       2.94835496       6.21135950
H       -3.44117999       0.35312900       3.04841995     -10.68862247       8.40724087      34.58153152       6.66442823
H       -2.88081002      -0.77850902       1.97373998      -5.87580252     -24.81882095      -2.33262253       7.26929188
C       -2.43738008       1.16646004       1.31175005       4.46521378     -52.82740021      67.19132996      -9.57030487
H       -2.76971006       1.25663996       0.31591201      -9.46254826      15.32351589     -22.11977005       6.68543148
H       -2.54719996       2.03623009       1.97402000       6.72326422       9.15310955     -19.94045067       6.67430782
C       -0.97742301       0.56076598       1.31479001      22.92875671      35.12687302     -41.86962128     -10.64431000
H       -0.96964300      -0.44766799       0.87532902      -2.71510005       3.70628572       7.11791277       6.70257616
H       -0.38640100       0.55657500       2.25781012     -24.05810165      -5.20205402      -2.77467418       6.57696915
C       -0.03907890       1.42782998       0.37090099      -0.42098013      27.99959946      40.65795135     -11.69960976
H       -0.43603399       1.82379997      -0.60099602       0.69512343     -17.10751534      17.66794395       6.08645391
H        0.16852900       2.37575006       1.01383996      -0.43594304     -39.27315903     -32.52497101       6.85845947
H        0.90311301       0.85102701       0.20087500     -12.74853611      15.19400883       0.18298653       6.23392916
14
Properties=species:S:1:pos:R:3:forces:R:3:energies:R:1 original_dataset_index=16 energy=18.193620681762695 pbc="F F F"
C       -1.63993001      -0.76945502       2.37336993     -17.48667717     -35.60666275     -13.78226089     -12.82291603
H       -1.20773995      -1.48772001       1.59135997     -23.98824310      25.27269173      19.36812782       6.50502014
H       -2.49341989      -1.22941005       2.90942001      12.38160992      -4.25081587      -8.51406574       6.55282831
H       -0.86659402      -0.76071203       3.10720992      11.96727562      18.86298370      10.90570259       6.21639585
C       -2.23001003       0.55059999       1.82637000      20.93220329      25.60686874      -8.75428581     -10.77970982