ITEM: TIMESTEP
0
ITEM: NUMBER OF ATOMS
22
ITEM: BOX BOUNDS pp pp pp
-5.0000000000000000e+01 5.0000000000000000e+01
-5.0000000000000000e+01 5.0000000000000000e+01
-5.0000000000000000e+01 5.0000000000000000e+01
ITEM: ATOMS id type x y z fx fy fz
1 1 2.36548 0.901838 -0.828014 -11.3501 18.697 26.7746
2 2 2.16433 1.90388 -0.449133 144.938 -28.4173 -59.3067
3 1 1.8952 2.02378 0.600292 -43.3582 -4.26095 95.2707
4 1 1.44732 2.28475 -1.17641 -53.096 44.7352 -48.8757
5 3 3.58245 2.6239 -0.46964 -50.4229 -34.1667 12.4518
6 4 4.43606 1.91892 -1.04323 5.30446 43.2279 12.7761
7 5 3.69501 3.78332 0.291082 -60.9221 53.7017 25.5416
8 6 2.82046 4.14666 0.642155 112.726 -46.3953 -41.6522
9 2 4.95977 4.66439 0.6046 -16.1742 -25.5379 -64.475
10 7 5.1726 4.71595 1.67238 -4.60023 -13.5545 56.3815
11 2 6.26547 3.96067 0.11404 -42.4517 -52.4781 87.495
12 1 6.37372 2.94913 0.505413 2.3522 72.3671 -14.8031
13 1 5.9716 3.79889 -0.923056 -6.32122 -13.5213 -101.381
14 1 7.12028 4.63699 0.115551 33.6873 16.1892 9.13811
15 3 4.80105 6.22101 0.393238 -38.71 56.9557 30.5314
16 4 4.32525 6.89676 1.34457 11.4438 -40.1122 -12.786
17 5 5.05059 6.96558 -0.71711 -40.0152 -18.4851 95.1928
18 6 5.5798 6.42736 -1.3882 54.0081 -41.4891 -89.673
19 2 4.68503 8.36227 -0.882263 127.436 42.9324 -14.3298
20 7 5.58052 8.96268 -1.0426 -77.4573 -51.2016 17.4055
21 7 4.07961 8.42675 -1.78637 -32.3071 7.45374 -41.509
22 7 4.12263 8.73633 -0.0267605 -14.7098 13.3601 19.8327
ITEM: TIMESTEP
1
ITEM: NUMBER OF ATOMS
22
ITEM: BOX BOUNDS pp pp pp
-5.0000000000000000e+01 5.0000000000000000e+01
-5.0000000000000000e+01 5.0000000000000000e+01
-5.0000000000000000e+01 5.0000000000000000e+01
ITEM: ATOMS id type x y z fx fy fz
1 1 2.33886 0.902066 -0.83385 -3.08239 -3.6972 18.0684
2 2 2.16613 1.90653 -0.44742 49.6521 29.295 -6.73242
3 1 1.8691 2.00108 0.597055 -13.6757 -12.9369 -8.59381
4 1 1.45283 2.278 -1.18316 2.70792 16.6912 8.39344
5 3 3.58257 2.61917 -0.473976 -48.7489 -29.9758 16.3046
6 4 4.43837 1.91498 -1.0487 3.23681 43.7239 13.6387
7 5 3.69044 3.78174 0.288534 54.5109 10.4213 -17.1657
8 6 2.82265 4.15227 0.648732 3.27042 -3.57032 0.474839
9 2 4.96116 4.66683 0.600622 -7.74988 -31.4838 -8.46075
10 7 5.19618 4.70204 1.6644 -18.7601 -13.8471 2.03112
11 2 6.26923 3.95831 0.120228 -49.1048 24.2077 -30.58
12 1 6.35717 2.95104 0.527376 12.099 9.89297 9.38241
13 1 5.99158 3.78607 -0.919649 19.6369 1.69319 -7.46689
14 1 7.10787 4.65428 0.140603 4.50085 -11.9806 8.57287
15 3 4.7966 6.22017 0.400892 -32.6912 63.2982 17.451
16 4 4.32291 6.90296 1.34681 10.2157 -41.3762 -10.9094
17 5 5.05543 6.9644 -0.717978 11.9302 -74.3972 31.7076
18 6 5.58872 6.43127 -1.38989 -3.01014 15.4618 -16.7413
19 2 4.68215 8.36471 -0.882668 9.1375 4.91231 -20.2474
20 7 5.57534 8.9653 -1.0547 1.46161 0.309393 3.22445
21 7 4.08487 8.43068 -1.79206 -5.36235 4.13246 2.79342
22 7 4.14388 8.76414 -0.0231218 -0.174437 -0.774397 -5.14506
