14
 Atoms. Timestep: 0
1 -5.76791 -1.14836 6.87152
2 -5.22896 -1.70745 5.99749
2 -5.30459 -0.170617 6.84686
2 -6.84624 -0.936635 6.65109
1 -5.54018 -1.86244 8.22411
2 -6.33671 -2.65744 8.34076
2 -4.52939 -2.31695 8.34104
1 -5.77811 -0.896557 9.40328
2 -6.76049 -0.399734 9.18436
2 -5.00812 -0.063019 9.3577
1 -5.86902 -1.45898 10.8975
2 -4.79689 -1.6325 11.2409
2 -6.35806 -0.701738 11.6154
2 -6.40553 -2.44048 10.957
14
 Atoms. Timestep: 1
1 -5.7676 -1.1487 6.87077
2 -5.2357 -1.70322 6.00554
2 -5.30366 -0.169755 6.84792
2 -6.84233 -0.938885 6.65168
1 -5.5405 -1.86279 8.22451
2 -6.33145 -2.65471 8.33939
2 -4.53245 -2.31586 8.33955
1 -5.7783 -0.895933 9.40355
2 -6.75659 -0.401473 9.18573
2 -5.01238 -0.0677034 9.35826
1 -5.86867 -1.45883 10.8974
2 -4.80375 -1.63188 11.2397
2 -6.35441 -0.707546 11.6099
2 -6.40408 -2.43646 10.9567
