22
 Atoms. Timestep: 0
1 3.38725 5.43325 3.71773
2 2.79833 5.59767 2.81538
1 3.14255 6.60071 2.56336
1 1.77055 5.72181 3.15649
3 3.10116 4.72778 1.58244
4 2.15946 3.92235 1.24807
5 4.36455 4.86838 0.999638
6 4.99598 5.49944 1.47203
2 5.04688 3.93843 0.0126238
7 5.93803 3.48509 0.446704
2 4.14679 2.79567 -0.570974
1 4.72842 2.08728 -1.16089
1 3.36199 2.35618 0.0446862
1 3.47449 3.41574 -1.16394
3 5.60253 4.86619 -1.03476
4 6.66896 4.50915 -1.41405
5 4.85022 5.84304 -1.49164
6 3.92299 6.18284 -1.2798
2 5.26739 6.22137 -2.90964
7 5.11688 5.35468 -3.55329
7 4.72837 7.08956 -3.28886
7 6.27375 6.50688 -3.21595
22
 Atoms. Timestep: 1
1 3.37634 5.42176 3.72312
2 2.79784 5.60003 2.81666
1 3.13106 6.5987 2.53431
1 1.7692 5.70459 3.16173
3 3.1018 4.72299 1.57782
4 2.16243 3.91846 1.24254
5 4.3606 4.86569 0.997348
6 4.96856 5.50981 1.48273
2 5.04924 3.94107 0.0110903
7 5.94729 3.48034 0.422598
2 4.14975 2.79625 -0.566317
1 4.71733 2.06584 -1.14291
1 3.38939 2.34437 0.0706708
1 3.46276 3.42007 -1.13815
3 5.59798 4.86336 -1.02689
4 6.66711 4.51605 -1.4121
5 4.85539 5.84343 -1.49543
6 3.93467 6.18504 -1.25946
2 5.26468 6.22343 -2.91035
7 5.12561 5.36689 -3.56996
7 4.73364 7.09738 -3.28758
7 6.27187 6.52264 -3.2004
