22
 Atoms. Timestep: 0
1 4.51871 7.50197 2.3121
2 4.20557 6.53797 2.71304
1 3.45649 6.80268 3.4593
1 4.98845 6.01316 3.26056
3 3.3688 5.67743 1.71684
4 2.1476 5.67899 1.62031
5 4.17518 5.33185 0.744049
6 5.16729 5.35833 0.931452
2 3.82459 4.49527 -0.397725
7 3.02828 3.77434 -0.212644
2 3.05235 5.42863 -1.38225
1 2.04053 5.72364 -1.10423
1 3.56764 6.2939 -1.79924
1 3.01722 4.82017 -2.28593
3 4.99588 3.62824 -1.00544
4 5.38063 2.63452 -0.357161
5 5.66615 4.13495 -2.08201
6 5.21537 4.75818 -2.73659
2 7.01312 3.78292 -2.39033
7 7.38116 4.5731 -3.04475
7 7.60789 3.75588 -1.4773
7 6.85729 2.80925 -2.85485
22
 Atoms. Timestep: 1
1 4.49707 7.50228 2.2967
2 4.20562 6.5395 2.71649
1 3.43242 6.78387 3.44487
1 4.9908 6.0056 3.25179
3 3.37052 5.67416 1.71227
4 2.14985 5.6744 1.61487
5 4.17091 5.32874 0.740785
6 5.15795 5.37562 0.949734
2 3.82625 4.49889 -0.401378
7 3.04738 3.75671 -0.226301
2 3.05548 5.42798 -1.37625
1 2.04275 5.70365 -1.08217
1 3.59394 6.28866 -1.77298
1 2.99381 4.82234 -2.28041
3 4.99217 3.62685 -0.997963
4 5.37813 2.64147 -0.354995
5 5.67128 4.13392 -2.08396
6 5.21164 4.77218 -2.71756
2 7.00918 3.78747 -2.39006
7 7.38649 4.56941 -3.04908
7 7.61411 3.75727 -1.48383
7 6.88295 2.81472 -2.86537
