ITEM: TIMESTEP
0
ITEM: NUMBER OF ATOMS
22
ITEM: BOX BOUNDS pp pp pp
-5.0000000000000000e+01 5.0000000000000000e+01
-5.0000000000000000e+01 5.0000000000000000e+01
-5.0000000000000000e+01 5.0000000000000000e+01
ITEM: ATOMS id type x y z fx fy fz
1 1 7.31303 3.65391 1.78578 4.9908 -12.2416 43.5182
2 2 7.43662 3.8068 0.713661 23.6362 -72.5696 -59.1794
3 1 8.08066 3.03658 0.289317 -56.4251 54.7513 26.1044
4 1 7.89373 4.78993 0.601426 18.8674 38.3471 -9.62601
5 3 6.00885 3.84264 0.17652 25.0325 -111.058 -81.8911
6 4 5.63575 3.03371 -0.755132 23.0744 56.3524 47.91
7 5 5.19827 4.52528 0.86295 -23.2603 84.7354 109.059
8 6 5.61463 4.97952 1.6632 -29.0561 -25.3708 -53.784
9 2 3.71034 4.60451 0.794672 -6.52848 -56.1081 22.9727
10 7 3.41341 3.59108 0.52469 6.41912 48.2998 15.0612
11 2 3.06943 4.93686 2.18954 -23.3741 -51.0415 84.175
12 1 2.02302 4.63545 2.23719 109.124 41.2784 -12.2947
13 1 3.55753 4.26921 2.89955 -51.0792 79.3639 -70.7681
14 1 3.23071 5.98557 2.43914 -14.3126 -76.6151 -15.5593
15 3 3.23667 5.49423 -0.311365 -10.2024 -8.83842 -39.8896
16 4 2.50425 6.47828 -0.225706 1.5772 -1.53089 15.5278
17 5 3.66346 5.01542 -1.47278 -51.7947 48.3387 -23.6712
18 6 4.43305 4.36586 -1.39598 36.1404 -45.6236 -1.32449
19 2 3.41929 5.6317 -2.7792 148.528 45.8178 29.2303
20 7 3.70493 6.66599 -2.58746 -8.93734 -49.7637 -24.0058
21 7 4.04886 5.14411 -3.52351 -15.2066 19.2382 22.1274
22 7 2.42265 5.71617 -3.2124 -107.212 -5.76181 -23.6927
ITEM: TIMESTEP
1
ITEM: NUMBER OF ATOMS
22
ITEM: BOX BOUNDS pp pp pp
-5.0000000000000000e+01 5.0000000000000000e+01
-5.0000000000000000e+01 5.0000000000000000e+01
-5.0000000000000000e+01 5.0000000000000000e+01
ITEM: ATOMS id type x y z fx fy fz
1 1 7.2898 3.64772 1.78342 12.8814 -6.03168 0.133747
2 2 7.43631 3.80868 0.715376 -12.8212 9.53648 4.98753
3 1 8.05184 3.02612 0.271725 -7.51454 0.772849 -0.718093
4 1 7.91418 4.78185 0.602823 -1.51754 -0.921493 -4.85197
5 3 6.01029 3.83658 0.17054 22.4421 -98.6202 -72.1366
6 4 5.63829 3.02995 -0.76014 22.9494 54.155 46.0162
7 5 5.19427 4.52416 0.861648 -48.9102 53.333 51.4228
8 6 5.58739 4.9895 1.66726 3.45716 3.49523 -1.35432
9 2 3.7119 4.60642 0.792217 5.97277 -13.7113 39.7141
10 7 3.43928 3.59001 0.508139 -10.4812 2.95767 4.98264
11 2 3.07352 4.93453 2.19567 20.1379 -19.7408 -13.8728
12 1 2.02862 4.63091 2.25967 -0.942226 7.54354 -8.96015
13 1 3.56822 4.27567 2.90931 2.1628 6.42738 5.35034
14 1 3.20834 5.9836 2.45907 -0.575047 -3.64224 -0.508655
15 3 3.23272 5.49224 -0.304938 -10.4784 -2.63069 -54.8011
16 4 2.50178 6.48499 -0.2231 4.89239 -7.53709 16.7155
17 5 3.66812 5.01524 -1.47542 -13.7932 15.2456 -3.8273
18 6 4.43827 4.36891 -1.37934 -8.09606 -7.7023 -10.2725
19 2 3.41677 5.63419 -2.77885 22.0832 19.1398 -5.84948
20 7 3.71397 6.6689 -2.60816 4.99486 0.826053 -11.0283
21 7 4.05767 5.15049 -3.516 1.55567 3.58573 -1.41472
22 7 2.42469 5.74001 -3.2178 -8.40008 -16.4806 20.2732
