ITEM: TIMESTEP
0
ITEM: NUMBER OF ATOMS
22
ITEM: BOX BOUNDS pp pp pp
-5.0000000000000000e+01 5.0000000000000000e+01
-5.0000000000000000e+01 5.0000000000000000e+01
-5.0000000000000000e+01 5.0000000000000000e+01
ITEM: ATOMS id type x y z fx fy fz
1 1 4.19576 5.3554 -3.97837 27.6426 23.8142 -11.355
2 2 3.78993 4.43247 -3.56411 90.673 -167.658 -36.8837
3 1 4.08652 3.4772 -3.99724 -36.8278 118.349 16.0271
4 1 2.70537 4.54062 -3.57597 -82.5612 2.92033 -0.0821044
5 3 4.23537 4.0893 -2.19643 -3.48436 74.5053 56.2893
6 4 4.93022 3.15098 -1.93054 15.993 -29.6248 -16.1324
7 5 3.8991 4.98904 -1.23489 -13.5006 24.6787 -39.7976
8 6 3.53882 5.87005 -1.5727 21.9031 -64.1158 30.8514
9 2 3.62145 4.59043 0.174176 59.1743 -15.3904 58.8449
10 7 2.60041 4.96905 0.221432 -119.02 36.2506 11.8303
11 2 3.48607 3.08339 0.527211 -52.2382 9.99977 68.443
12 1 4.44992 2.63731 0.282055 72.6368 -38.6626 -16.9189
13 1 3.40821 2.77585 1.57002 -11.2165 41.0306 -84.9233
14 1 2.75213 2.69127 -0.176829 -7.02859 -12.7796 9.61734
15 3 4.21862 5.35996 1.40527 109.744 17.093 -63.4754
16 4 3.74452 5.6877 2.46744 -51.5313 -15.0398 8.38737
17 5 5.51459 5.7297 1.16955 -78.369 25.1216 95.6348
18 6 5.96159 5.4644 0.303578 40.2815 -29.2122 -91.3235
19 2 6.3588 6.27156 2.21551 51.0296 42.1 -29.6421
20 7 6.96402 5.42851 2.54878 12.0957 -12.1979 15.623
21 7 7.04744 7.04258 1.86996 -30.4506 -32.9287 4.5963
22 7 5.81828 6.72893 3.04421 -14.9449 1.74653 14.3892
ITEM: TIMESTEP
1
ITEM: NUMBER OF ATOMS
22
ITEM: BOX BOUNDS pp pp pp
-5.0000000000000000e+01 5.0000000000000000e+01
-5.0000000000000000e+01 5.0000000000000000e+01
-5.0000000000000000e+01 5.0000000000000000e+01
ITEM: ATOMS id type x y z fx fy fz
1 1 4.17723 5.35669 -3.99212 14.6321 -7.5296 4.55215
2 2 3.79079 4.43269 -3.56201 -15.2919 -26.121 -12.1145
3 1 4.06177 3.47995 -4.01692 -1.6489 14.3732 -28.0409
4 1 2.70477 4.52519 -3.57259 -0.828839 -3.25215 1.78176
5 3 4.23631 4.08647 -2.2 -1.61718 75.0231 58.3545
6 4 4.93267 3.14609 -1.93639 13.9469 -27.8225 -15.2243
7 5 3.89524 4.98703 -1.23841 11.9947 -35.2002 -10.3003
8 6 3.52216 5.87199 -1.55108 -1.30573 -4.66666 2.38846
9 2 3.62415 4.59305 0.172346 -52.8968 18.9038 65.6731
10 7 2.60025 4.96548 0.20421 -6.028 -4.91233 8.83246
11 2 3.48966 3.08212 0.533068 22.6546 0.53428 -36.3006
12 1 4.44796 2.61618 0.303579 -1.25486 -2.53454 -3.67014
13 1 3.42718 2.77435 1.57685 -19.0878 17.6785 0.506074
14 1 2.73128 2.70255 -0.151678 -1.55669 -12.4168 12.0991
15 3 4.21675 5.35843 1.41129 117.257 19.9927 -70.2141
16 4 3.74136 5.69423 2.46995 -51.6048 -15.0712 8.90507
17 5 5.51885 5.72917 1.16869 -41.3513 -3.37444 8.34772
18 6 5.96766 5.47086 0.301542 -6.92254 -2.01818 -0.780466
19 2 6.35459 6.27398 2.21484 32.8846 6.29475 8.87785
20 7 6.97743 5.43922 2.53631 -1.20078 2.79869 10.8802
21 7 7.05308 7.03814 1.87384 -2.76919 -0.521649 -11.9519
22 7 5.83948 6.75433 3.04672 -8.00434 -10.1579 -2.6012
