ITEM: TIMESTEP
0
ITEM: NUMBER OF ATOMS
14
ITEM: BOX BOUNDS pp pp pp
-2.2206855000000001e+01 1.8793144999999999e+01
-1.9677098999999998e+01 2.1322901000000002e+01
-1.9241968000000000e+01 2.1758032000000000e+01
ITEM: ATOMS id type x y z fx fy fz
1 1 -4.62542 -1.00162 6.21619 -26.8775 -29.5077 56.9354
2 2 -3.89709 -1.85551 6.4659 -24.5704 27.3004 -21.5575
3 2 -5.63097 -1.30502 6.71982 43.5584 11.4188 -23.3628
4 2 -4.26049 -0.167631 6.85847 -5.40896 -3.95739 -19.995
5 1 -4.90048 -0.685983 4.72212 43.181 29.6883 -8.95259
6 2 -3.88434 -0.31108 4.2667 -51.3504 -22.1354 15.3037
7 2 -5.24538 -1.61895 4.2756 9.01048 -0.667369 -6.36714
8 1 -6.03824 0.364032 4.47223 -58.1989 -85.7567 67.408
9 2 -5.8431 1.22955 5.08151 0.646032 18.0829 -8.75555
10 2 -7.02558 -0.1332 4.97054 66.284 37.1349 -33.4447
11 1 -6.34487 0.490514 3.01007 28.5389 -11.9146 -72.7467
12 2 -6.40003 -0.518143 2.42528 -1.63215 40.8666 33.9359
13 2 -7.28516 1.03085 2.79442 10.8429 -0.955374 4.48321
14 2 -5.45217 0.996055 2.49773 -34.0235 -9.59722 17.1157
ITEM: TIMESTEP
1
ITEM: NUMBER OF ATOMS
14
ITEM: BOX BOUNDS pp pp pp
-2.2206855000000001e+01 1.8793144999999999e+01
-1.9677098999999998e+01 2.1322901000000002e+01
-1.9241968000000000e+01 2.1758032000000000e+01
ITEM: ATOMS id type x y z fx fy fz
1 1 -4.62589 -1.00213 6.21719 -24.4195 -24.3554 49.3018
2 2 -3.90219 -1.84985 6.46143 -20.8929 23.024 -19.8239
3 2 -5.62193 -1.30265 6.71497 36.911 9.36202 -19.8012
4 2 -4.26162 -0.168452 6.85432 -4.64525 -2.59359 -18.261
5 1 -4.89972 -0.685465 4.72196 35.3326 25.8395 -5.05651
6 2 -3.895 -0.315674 4.26987 -43.8354 -19.1266 12.1249
7 2 -5.24351 -1.61909 4.27427 9.02537 -0.260148 -6.07249
8 1 -6.03925 0.362537 4.4734 -47.2805 -77.7007 60.9837
9 2 -5.84297 1.2333 5.07969 0.31199 16.1663 -9.37551
10 2 -7.01182 -0.125493 4.9636 55.8003 31.7041 -27.9551
11 1 -6.34437 0.490306 3.0088 25.1851 -8.65133 -64.064
12 2 -6.40036 -0.509662 2.43232 -1.92182 34.2522 29.6292
13 2 -7.28291 1.03065 2.79535 9.70829 -0.453375 4.03012
14 2 -5.45923 0.994063 2.50129 -29.2793 -7.207 14.3398
