ITEM: TIMESTEP
0
ITEM: NUMBER OF ATOMS
14
ITEM: BOX BOUNDS pp pp pp
-2.2206855000000001e+01 1.8793144999999999e+01
-1.9677098999999998e+01 2.1322901000000002e+01
-1.9241968000000000e+01 2.1758032000000000e+01
ITEM: ATOMS id type x y z fx fy fz
1 1 -2.71409 -4.31017 10.8301 -9.83525 4.37722 16.2815
2 2 -1.66715 -4.35167 10.4992 -4.69026 3.53781 4.13506
3 2 -2.87361 -5.15135 11.5605 -2.8355 13.8831 -21.5061
4 2 -2.91829 -3.36701 11.3799 11.7563 -12.8201 -1.51715
5 1 -3.64699 -4.2152 9.60662 4.55542 9.20742 -32.8403
6 2 -3.42846 -3.26996 9.03238 -2.05513 -18.2172 18.0898
7 2 -3.42923 -4.95877 8.81179 1.9419 -0.307688 18.9629
8 1 -5.15928 -4.20665 9.88178 -28.5905 -22.5503 25.9548
9 2 -5.50898 -3.29459 10.3507 6.75111 11.1447 -5.59134
10 2 -5.5969 -4.9381 10.6388 30.7552 11.5036 -21.7583
11 1 -5.92981 -4.48609 8.59514 -49.4569 24.2898 -32.7942
12 2 -5.71868 -5.47825 8.19872 -1.34232 -3.00757 4.21512
13 2 -7.05607 -4.39485 8.79072 37.6785 -7.9785 -4.30339
14 2 -5.7749 -3.79491 7.70383 5.36751 -13.0623 32.6717
ITEM: TIMESTEP
1
ITEM: NUMBER OF ATOMS
14
ITEM: BOX BOUNDS pp pp pp
-2.2206855000000001e+01 1.8793144999999999e+01
-1.9677098999999998e+01 2.1322901000000002e+01
-1.9241968000000000e+01 2.1758032000000000e+01
ITEM: ATOMS id type x y z fx fy fz
1 1 -2.71427 -4.31009 10.8304 -9.61512 5.27802 12.9093
2 2 -1.66813 -4.35093 10.5 -4.07466 3.3452 3.93439
3 2 -2.8742 -5.14847 11.556 -3.21786 11.3476 -19.172
4 2 -2.91585 -3.36967 11.3796 11.1406 -11.085 -0.504638
5 1 -3.64691 -4.21504 9.60605 3.39629 7.34547 -28.6409
6 2 -3.42889 -3.27374 9.03613 -1.38545 -15.1652 15.8943
7 2 -3.42883 -4.95883 8.81572 2.20367 -1.42341 17.2801
8 1 -5.15977 -4.20705 9.88223 -25.9187 -18.6425 21.9705
9 2 -5.50758 -3.29228 10.3495 6.65241 10.2825 -5.60215
10 2 -5.59052 -4.93571 10.6343 28.3552 8.47214 -18.2821
11 1 -5.93067 -4.48567 8.59457 -43.6345 20.3485 -28.9521
12 2 -5.71896 -5.47887 8.1996 -1.44709 -2.57021 4.09392
13 2 -7.04825 -4.39651 8.78983 31.8141 -7.34392 -3.5265
14 2 -5.77379 -3.79762 7.71061 5.73118 -10.1891 28.5979
