14
 Atoms. Timestep: 0
1 -2.51775 -4.08837 10.7729
2 -1.42653 -4.26314 10.5864
2 -2.88526 -4.74558 11.5429
2 -2.69188 -3.04535 11.163
1 -3.45825 -4.23336 9.50838
2 -3.40372 -3.37433 8.76626
2 -3.22988 -5.13725 8.93144
1 -4.98451 -4.2738 9.81407
2 -5.36956 -3.29596 10.1746
2 -5.14981 -4.89914 10.6824
1 -5.86534 -4.83798 8.74555
2 -5.69661 -5.90412 8.65359
2 -6.94211 -4.67849 9.00971
2 -5.72384 -4.35016 7.77943
14
 Atoms. Timestep: 1
1 -2.51806 -4.08781 10.7726
2 -1.43081 -4.2624 10.5866
2 -2.88438 -4.7474 11.5444
2 -2.68952 -3.05011 11.1617
1 -3.45844 -4.23304 9.50797
2 -3.40097 -3.37893 8.77106
2 -3.22879 -5.1368 8.9327
1 -4.9843 -4.2735 9.81473
2 -5.36781 -3.2977 10.1723
2 -5.14926 -4.90017 10.6831
1 -5.86588 -4.83788 8.74535
2 -5.69651 -5.90505 8.65267
2 -6.93808 -4.6796 9.009
2 -5.72311 -4.35046 7.77958
