22
 Atoms. Timestep: 0
1 5.99262 8.02295 -1.39473
2 4.9571 7.80223 -1.65374
1 4.80872 7.28047 -2.59917
1 4.3513 8.70837 -1.64978
3 4.4307 6.87637 -0.620741
4 3.60558 7.22625 0.200482
5 4.91851 5.6358 -0.654435
6 5.28604 5.46851 -1.5802
2 5.16228 4.6069 0.392205
7 6.24793 4.53482 0.45755
2 4.67519 5.04036 1.81677
1 3.60132 5.13492 1.65562
1 4.83449 4.21902 2.51543
1 5.24835 5.91458 2.12554
3 4.7003 3.21785 -0.02675
4 5.48693 2.51229 -0.626342
5 3.46472 2.79633 0.442118
6 2.97476 3.50902 0.963763
2 2.66235 1.74447 -0.137294
7 2.57181 1.70978 -1.22297
7 3.22112 0.818296 -0.00284957
7 1.62348 1.74991 0.192586
22
 Atoms. Timestep: 1
1 5.99183 8.02433 -1.40189
2 4.95493 7.80205 -1.65393
1 4.79793 7.27546 -2.59529
1 4.35513 8.71215 -1.64612
3 4.43157 6.87178 -0.624733
4 3.6078 7.22192 0.194892
5 4.91427 5.63381 -0.656059
6 5.27596 5.47669 -1.58589
2 5.16578 4.61014 0.389702
7 6.25139 4.52472 0.43711
2 4.67892 5.0377 1.82183
1 3.60075 5.12402 1.68692
1 4.85342 4.22509 2.52704
1 5.22313 5.92427 2.14731
3 4.69584 3.2157 -0.0189602
4 5.48441 2.51885 -0.624165
5 3.46992 2.7972 0.440101
6 2.98233 3.50531 0.970143
2 2.6595 1.74503 -0.139369
7 2.58558 1.72779 -1.22672
7 3.22744 0.825487 0.00198532
7 1.62486 1.77435 0.202325
