22
 Atoms. Timestep: 0
1 6.12996 8.00471 -1.79058
2 5.07425 7.73675 -1.74842
1 4.59942 7.17523 -2.55299
1 4.65009 8.7365 -1.65523
3 4.83927 6.73969 -0.62435
4 4.28106 7.17883 0.370214
5 5.35437 5.54532 -0.785601
6 5.90294 5.5165 -1.63315
2 5.11622 4.32878 0.00902893
7 5.82268 3.70197 -0.535146
2 5.81936 4.65492 1.25765
1 6.74288 5.21672 1.11771
1 5.11677 5.22733 1.8633
1 6.09411 3.77753 1.84314
3 3.86842 3.54472 0.244562
4 3.02549 3.95008 0.948965
5 3.84055 2.35315 -0.362953
6 4.67158 2.2277 -0.923091
2 2.75761 1.38232 -0.244922
7 2.28362 1.71483 0.678588
7 2.07253 1.4706 -1.08811
7 3.17148 0.384124 -0.102037
22
 Atoms. Timestep: 1
1 6.1267 8.00249 -1.80511
2 5.07131 7.73607 -1.74786
1 4.59995 7.17454 -2.55446
1 4.65444 8.73817 -1.64727
3 4.84015 6.73665 -0.628554
4 4.28322 7.17412 0.364597
5 5.34918 5.54293 -0.787479
6 5.89484 5.5275 -1.63725
2 5.12098 4.3307 0.00448478
7 5.82745 3.70367 -0.539424
2 5.82241 4.65272 1.26297
1 6.74673 5.21691 1.13878
1 5.13625 5.22057 1.89131
1 6.07584 3.78342 1.86976
3 3.86481 3.54262 0.250873
4 3.02233 3.95705 0.951826
5 3.84508 2.35274 -0.364553
6 4.68193 2.23315 -0.917263
2 2.75371 1.38453 -0.245317
7 2.28457 1.72976 0.675999
7 2.07652 1.47319 -1.09481
7 3.19866 0.399847 -0.102041
