14
 Atoms. Timestep: 0
1 -5.35069 0.937595 7.00191
2 -4.72471 1.20733 7.86498
2 -6.14981 0.305384 7.49961
2 -5.74184 1.93485 6.7104
1 -4.51618 0.312249 5.84175
2 -3.82887 0.973963 5.36879
2 -3.90044 -0.510064 6.2267
1 -5.43486 -0.120473 4.67206
2 -6.22603 0.629733 4.58259
2 -5.9863 -1.05916 4.83721
1 -4.62497 -0.218435 3.29255
2 -3.72519 -0.836864 3.45076
2 -5.34719 -0.488863 2.46998
2 -4.17059 0.808865 2.95664
14
 Atoms. Timestep: 1
1 -5.35075 0.937819 7.00231
2 -4.72394 1.20625 7.86304
2 -6.14614 0.307782 7.49448
2 -5.74251 1.93144 6.71032
1 -4.51664 0.311844 5.84182
2 -3.82631 0.978077 5.37009
2 -3.90152 -0.510019 6.22588
1 -5.43461 -0.120491 4.67158
2 -6.22545 0.629592 4.58166
2 -5.98451 -1.05823 4.83843
1 -4.62508 -0.217443 3.29268
2 -3.728 -0.838343 3.44828
2 -5.34214 -0.490119 2.47318
2 -4.17584 0.79931 2.96078
