22
 Atoms. Timestep: 0
1 3.37856 1.77308 1.48926
2 2.9378 1.7879 0.492462
1 1.96705 1.29904 0.574707
1 3.55731 1.12514 -0.111738
3 2.91844 3.24474 -0.050548
4 1.87153 3.79147 0.014282
5 4.13408 3.7271 -0.490671
6 4.82777 3.05939 -0.795707
2 4.34099 5.00541 -1.03893
7 4.58876 4.82147 -2.08434
2 3.18403 6.06535 -0.883062
1 2.24106 5.81971 -1.3715
1 2.9499 5.96614 0.176863
1 3.39265 7.13508 -0.867276
3 5.5794 5.70797 -0.419789
4 6.37033 6.31789 -1.16067
5 5.64837 5.67745 0.890949
6 4.8943 5.28201 1.43419
2 6.91355 6.0544 1.55811
7 7.56607 5.21509 1.79869
7 7.46996 6.77524 0.959024
7 6.48695 6.34513 2.5181
22
 Atoms. Timestep: 1
1 3.36219 1.77035 1.49594
2 2.93596 1.78923 0.492905
1 1.96859 1.29007 0.548958
1 3.56296 1.12232 -0.0988799
3 2.92059 3.23944 -0.0549598
4 1.87331 3.78733 0.00864184
5 4.1281 3.72551 -0.492759
6 4.82489 3.05556 -0.785555
2 4.34353 5.00928 -1.04404
7 4.6072 4.81617 -2.0839
2 3.18734 6.06408 -0.876946
1 2.23581 5.80909 -1.34349
1 2.97316 5.95849 0.186576
1 3.37453 7.13751 -0.848417
3 5.57521 5.70619 -0.413416
4 6.36779 6.32442 -1.1581
5 5.65398 5.67619 0.88929
6 4.89983 5.29822 1.4447
2 6.90815 6.05624 1.5575
7 7.57754 5.2257 1.78163
7 7.47778 6.77472 0.968098
7 6.51376 6.37569 2.52213
