ITEM: TIMESTEP
0
ITEM: NUMBER OF ATOMS
22
ITEM: BOX BOUNDS pp pp pp
-5.0000000000000000e+01 5.0000000000000000e+01
-5.0000000000000000e+01 5.0000000000000000e+01
-5.0000000000000000e+01 5.0000000000000000e+01
ITEM: ATOMS id type x y z fx fy fz
1 1 2.13467 2.77043 -2.18581 -9.58636 9.72739 24.5673
2 2 1.77852 2.82455 -1.15706 79.9308 19.9159 -22.3094
3 1 2.32042 2.03279 -0.639805 -10.7644 -15.0425 5.19725
4 1 0.691259 2.75142 -1.18187 -68.9067 -7.26302 8.09039
5 3 2.24451 4.08636 -0.429253 50.1196 12.9896 47.9108
6 4 1.73454 4.50507 0.669854 12.6043 -21.8236 -67.0966
7 5 3.51419 4.43193 -0.867836 -84.218 88.4665 114.525
8 6 3.79854 3.82615 -1.62432 47.2664 -70.1619 -97.4844
9 2 4.4298 5.58297 -0.516616 -30.7666 -51.6465 -104.503
10 7 4.49742 5.92329 -1.54992 12.4148 -5.15887 60.0799
11 2 3.71176 6.72462 0.16405 -30.9151 -102.827 147.483
12 1 4.40177 7.50047 0.49576 51.396 42.5063 25.0838
13 1 3.14476 7.26811 -0.591745 -71.3772 51.5866 -78.3906
14 1 3.08953 6.41993 1.00553 60.3672 28.0587 -77.0423
15 3 5.86163 5.09269 -0.191392 36.4372 46.6138 -5.9566
16 4 6.78778 5.13654 -1.05049 -48.3697 -7.63284 3.65118
17 5 6.23102 4.85425 1.0625 -35.833 -7.65991 109.385
18 6 5.70627 4.95695 1.91935 21.973 -0.265627 -100.768
19 2 7.50442 4.2377 1.33717 119.975 60.6017 45.9343
20 7 7.42631 3.15052 1.3316 -12.2853 -53.3687 5.97515
21 7 8.26611 4.38499 0.571513 -36.3863 4.59013 25.5234
22 7 8.00253 4.56239 2.25072 -53.0758 -22.2055 -69.8544
ITEM: TIMESTEP
1
ITEM: NUMBER OF ATOMS
22
ITEM: BOX BOUNDS pp pp pp
-5.0000000000000000e+01 5.0000000000000000e+01
-5.0000000000000000e+01 5.0000000000000000e+01
-5.0000000000000000e+01 5.0000000000000000e+01
ITEM: ATOMS id type x y z fx fy fz
1 1 2.10841 2.7688 -2.19211 0.960429 10.3939 1.4138
2 2 1.77919 2.82804 -1.1547 0.37778 -5.33465 -1.36204
3 1 2.30108 2.00785 -0.661736 -12.9243 -2.28036 1.11886
4 1 0.693492 2.73387 -1.1768 0.699173 1.14467 10.5813
5 3 2.24638 4.08246 -0.432972 47.6245 15.5891 52.1803
6 4 1.73694 4.50028 0.663342 11.7803 -20.2277 -64.2054
7 5 3.50928 4.43087 -0.869056 -40.4448 12.714 13.4518
8 6 3.78714 3.82683 -1.62933 11.1491 8.31723 0.382686
9 2 4.43093 5.58495 -0.521292 -32.9738 -75.7911 -45.2548
10 7 4.52453 5.91113 -1.55712 12.2396 15.2481 6.62829
11 2 3.71572 6.72139 0.171283 5.23105 37.7999 10.878
12 1 4.3954 7.49619 0.526001 9.57199 -6.99289 1.38356
13 1 3.15124 7.2688 -0.583567 -9.74754 -5.85113 2.03266
14 1 3.08266 6.43968 1.0127 3.31577 -4.87864 -1.22942
15 3 5.85849 5.09167 -0.184374 41.1695 48.0416 -17.1123
16 4 6.78466 5.14317 -1.04804 -49.9236 -9.23362 7.39206
17 5 6.23592 4.85323 1.06184 6.00942 -14.2887 30.5009
18 6 5.70854 4.96942 1.91535 -26.9517 8.53999 -17.199
19 2 7.50141 4.24044 1.33782 52.6686 -26.262 1.62317
20 7 7.43466 3.15269 1.31713 -9.15607 -0.936977 8.1616
21 7 8.27052 4.38833 0.57973 -6.64982 11.373 -8.16614
22 7 8.01581 4.58281 2.23574 -14.0255 2.91615 6.80017
