22
 Atoms. Timestep: 0
1 6.06207 3.40651 3.3888
2 5.977 3.087 2.35016
1 5.40796 2.16118 2.26559
1 6.97717 3.00112 1.92545
3 5.42018 4.12552 1.40273
4 4.97023 5.21664 1.83963
5 5.34167 3.78079 0.062094
6 5.74995 2.92498 -0.285755
2 5.15271 4.84926 -1.04062
7 5.75005 5.71979 -0.769589
2 5.82895 4.19426 -2.2633
1 5.92648 4.93651 -3.05554
1 6.58758 3.53853 -1.83598
1 5.23358 3.36999 -2.65601
3 3.61008 5.29929 -1.20109
4 3.11243 4.85091 -2.26749
5 2.99469 5.89526 -0.14457
6 3.70992 6.15637 0.519031
2 1.62173 6.11321 0.285792
7 1.25685 6.98538 -0.256684
7 0.989217 5.30405 -0.0793007
7 1.60628 6.35261 1.34907
22
 Atoms. Timestep: 1
1 6.03769 3.40864 3.39054
2 5.97638 3.08766 2.35068
1 5.40663 2.16447 2.24484
1 6.97961 2.9833 1.93748
3 5.42044 4.12166 1.39771
4 4.97274 5.21173 1.83382
5 5.33731 3.78104 0.0599549
6 5.7382 2.91731 -0.276732
2 5.15382 4.85153 -1.04263
7 5.77481 5.71059 -0.788714
2 5.83412 4.1905 -2.25611
1 5.91594 4.93687 -3.04626
1 6.60039 3.54602 -1.82531
1 5.2088 3.38226 -2.63534
3 3.60688 5.29644 -1.19462
4 3.10965 4.85808 -2.26458
5 3.0013 5.89451 -0.146465
6 3.69871 6.16618 0.531697
2 1.61682 6.11652 0.285208
7 1.27123 6.99076 -0.266508
7 0.995184 5.2977 -0.0769944
7 1.62917 6.37457 1.34415
