14
 Atoms. Timestep: 0
1 -7.08517 -1.84029 7.28947
2 -7.33265 -1.85351 6.18843
2 -7.92802 -1.24076 7.71295
2 -7.17492 -2.94436 7.53754
1 -5.72798 -1.16498 7.62763
2 -4.88254 -1.64507 7.04461
2 -5.72129 -0.061699 7.30404
1 -5.26851 -1.1823 9.06452
2 -5.01223 -2.22204 9.49277
2 -6.08645 -0.762512 9.69685
1 -4.03588 -0.274633 9.12849
2 -4.25903 0.609035 8.51345
2 -3.74876 -0.095888 10.1953
2 -3.14694 -0.750655 8.68658
14
 Atoms. Timestep: 1
1 -7.08564 -1.84055 7.28915
2 -7.32963 -1.85217 6.19329
2 -7.92514 -1.24395 7.71299
2 -7.17362 -2.93772 7.53852
1 -5.72755 -1.16474 7.62687
2 -4.88802 -1.64299 7.04666
2 -5.72355 -0.0702764 7.30466
1 -5.26856 -1.18273 9.06514
2 -5.01468 -2.21459 9.48847
2 -6.08357 -0.763771 9.69514
1 -4.0357 -0.274837 9.12877
2 -4.25657 0.610496 8.51721
2 -3.75047 -0.0941927 10.1912
2 -3.14867 -0.750393 8.68651
