ITEM: TIMESTEP
0
ITEM: NUMBER OF ATOMS
14
ITEM: BOX BOUNDS pp pp pp
-2.2206855000000001e+01 1.8793144999999999e+01
-1.9677098999999998e+01 2.1322901000000002e+01
-1.9241968000000000e+01 2.1758032000000000e+01
ITEM: ATOMS id type x y z fx fy fz
1 1 -0.585264 -10.8801 7.12179 -51.9033 -30.8884 12.0016
2 2 -0.325443 -11.9766 7.32884 -16.9904 33.7517 -7.84278
3 2 -0.776628 -10.7732 6.01686 14.48 3.02052 22.9227
4 2 -1.59502 -10.568 7.63098 46.7032 -21.6147 -23.5485
5 1 0.518411 -10.0709 7.76031 -27.1714 55.2355 4.64096
6 2 1.4572 -10.3132 7.24783 2.65644 4.34848 11.702
7 2 0.225541 -8.98411 7.54939 17.4026 -34.1986 0.723736
8 1 0.457661 -10.1889 9.32873 -11.3882 -30.8048 -16.4273
9 2 0.951357 -11.116 9.57896 7.64727 -3.50836 3.93558
10 2 -0.565818 -10.3857 9.70932 8.94995 9.67466 -8.23464
11 1 1.07417 -9.0453 10.0843 25.4893 56.3322 -20.9817
12 2 0.476551 -8.0656 9.81214 33.9884 -46.7215 19.806
13 2 1.13187 -9.21522 11.1771 -7.69552 2.92931 -10.9874
14 2 2.17162 -8.95463 9.73762 -42.1683 2.44401 12.2898
ITEM: TIMESTEP
1
ITEM: NUMBER OF ATOMS
14
ITEM: BOX BOUNDS pp pp pp
-2.2206855000000001e+01 1.8793144999999999e+01
-1.9677098999999998e+01 2.1322901000000002e+01
-1.9241968000000000e+01 2.1758032000000000e+01
ITEM: ATOMS id type x y z fx fy fz
1 1 -0.586169 -10.8806 7.122 -44.5922 -27.5556 10.6842
2 2 -0.328969 -11.9695 7.32721 -15.6488 28.4737 -6.84908
3 2 -0.773623 -10.7725 6.02161 13.5847 3.18923 19.6544
4 2 -1.58533 -10.5725 7.6261 39.3823 -19.3523 -20.0502
5 1 0.517937 -10.0699 7.76039 -25.7865 48.9017 5.7239
6 2 1.45775 -10.3123 7.25026 2.6148 4.22435 11.4369
7 2 0.229153 -8.9912 7.54955 15.7409 -28.599 -0.194427
8 1 0.457462 -10.1894 9.32844 -8.89472 -29.8433 -16.4655
9 2 0.952944 -11.1167 9.57977 7.06767 -2.90842 3.64754
10 2 -0.563961 -10.3837 9.70761 7.23762 9.13289 -7.52467
11 1 1.07462 -9.04432 10.0839 23.1588 47.8472 -18.3322
12 2 0.483605 -8.07529 9.81625 29.4454 -39.2669 17.5788
13 2 1.13027 -9.21461 11.1748 -7.40622 2.77298 -9.70275
14 2 2.16287 -8.95412 9.74017 -35.9037 2.98353 10.3931
