ITEM: TIMESTEP
0
ITEM: NUMBER OF ATOMS
22
ITEM: BOX BOUNDS pp pp pp
-5.0000000000000000e+01 5.0000000000000000e+01
-5.0000000000000000e+01 5.0000000000000000e+01
-5.0000000000000000e+01 5.0000000000000000e+01
ITEM: ATOMS id type x y z fx fy fz
1 1 3.87326 0.896243 0.887203 17.7119 -15.7544 6.06059
2 2 3.43331 1.89169 0.826969 50.6772 -30.3962 -87.383
3 1 3.16752 2.36643 1.77147 -17.6905 51.4031 120.102
4 1 2.4356 1.75557 0.409649 -53.946 -9.42492 -34.9392
5 3 4.2336 2.85065 -0.005252 45.2717 -1.02964 -8.25151
6 4 5.45805 2.71033 -0.153265 -20.6307 1.24402 2.29167
7 5 3.56247 3.87262 -0.4928 -105.593 -50.052 67.7694
8 6 2.6123 3.82638 -0.153472 86.2845 22.3983 -45.5927
9 2 4.04516 5.0143 -1.17163 88.8395 57.8506 -91.3465
10 7 4.90861 4.85593 -1.81776 -114.987 0.584291 75.3912
11 2 2.8181 5.50282 -2.0069 -113.126 -21.1754 186.418
12 1 3.19502 6.25127 -2.70393 33.3186 89.534 -77.0665
13 1 2.4121 4.66168 -2.56882 -12.5764 -31.4689 -27.0858
14 1 1.99947 5.83943 -1.37079 114.322 -35.9116 -83.6979
15 3 4.59746 6.12694 -0.202715 31.2543 -51.549 -34.9948
16 4 4.32935 7.32257 -0.244223 -26.4801 -0.871574 -5.02908
17 5 5.61848 5.67903 0.534701 -48.1121 95.9449 81.3406
18 6 6.14262 4.81994 0.448989 18.3896 -72.7163 -25.6307
19 2 5.79887 6.36772 1.84337 140.032 26.2568 -98.2722
20 7 6.86353 6.28265 2.061 -49.1878 -1.51006 4.79566
21 7 5.69312 7.43257 1.63596 -3.03532 10.8342 6.86632
22 7 5.13675 6.12809 2.6754 -60.7371 -34.1903 68.2536
ITEM: TIMESTEP
1
ITEM: NUMBER OF ATOMS
22
ITEM: BOX BOUNDS pp pp pp
-5.0000000000000000e+01 5.0000000000000000e+01
-5.0000000000000000e+01 5.0000000000000000e+01
-5.0000000000000000e+01 5.0000000000000000e+01
ITEM: ATOMS id type x y z fx fy fz
1 1 3.85267 0.889321 0.877068 10.8679 6.3174 5.71494
2 2 3.43347 1.8943 0.828193 -31.881 -9.55945 3.18961
3 1 3.14674 2.35528 1.77338 15.5549 -3.85157 5.95452
4 1 2.44094 1.73758 0.405793 3.27933 1.55241 -11.6843
5 3 4.23539 2.8465 -0.00994885 39.9827 1.70709 -7.06376
6 4 5.46002 2.70584 -0.15887 -21.1022 1.41249 1.90125
7 5 3.55724 3.86949 -0.494718 -8.13201 -38.2233 31.782
8 6 2.609 3.84627 -0.147712 -4.30461 14.7381 -11.9562
9 2 4.04838 5.01819 -1.17608 -16.5985 66.7498 -2.89682
10 7 4.90928 4.84496 -1.82179 -9.45063 -16.2459 -3.56594
11 2 2.82063 5.50101 -1.99899 19.4526 -12.3797 -2.06621
12 1 3.18489 6.25674 -2.69489 -8.17735 3.58191 0.718642
13 1 2.43079 4.64514 -2.54999 1.38869 4.32487 -5.96238
14 1 2.0038 5.84591 -1.365 6.02805 6.48406 0.97101
15 3 4.59423 6.12421 -0.196203 31.0225 -40.499 -39.2678
16 4 4.32652 7.32928 -0.241886 -23.8151 -10.9614 -3.34606
17 5 5.6232 5.67956 0.533626 -11.9964 30.4971 76.7444
18 6 6.14415 4.81737 0.460587 -21.6987 -7.66895 -20.458
19 2 5.79621 6.36987 1.8415 35.4175 20.0347 -30.2084
20 7 6.86422 6.29558 2.04628 -1.48761 -6.28948 15.6051
21 7 5.70445 7.4372 1.64031 -4.01751 2.28178 6.66129
22 7 5.14844 6.14603 2.68909 -0.332429 -14.003 -10.7671
