ITEM: TIMESTEP
0
ITEM: NUMBER OF ATOMS
22
ITEM: BOX BOUNDS pp pp pp
-5.0000000000000000e+01 5.0000000000000000e+01
-5.0000000000000000e+01 5.0000000000000000e+01
-5.0000000000000000e+01 5.0000000000000000e+01
ITEM: ATOMS id type x y z fx fy fz
1 1 7.74234 5.8097 -1.10654 17.3974 54.5762 -14.1704
2 2 7.42221 4.77008 -1.03715 -49.4625 1.67505 -66.6314
3 1 8.18959 4.3477 -0.388441 45.6923 -41.2571 42.4439
4 1 7.34479 4.30337 -2.01913 5.5636 9.85849 25.0159
5 3 6.09252 4.78161 -0.391219 32.0367 -42.043 -0.931504
6 4 5.8472 3.72982 0.152033 -28.2954 -2.72678 13.3675
7 5 5.36579 5.8659 -0.472029 13.4395 -9.99304 32.3348
8 6 5.90345 6.68079 -0.730817 -15.7431 3.36002 -5.51337
9 2 3.92408 5.93726 -0.286993 45.5965 -54.432 -71.4127
10 7 3.78168 6.71179 0.466612 -25.4626 78.936 72.7911
11 2 3.62249 6.41453 -1.66251 -130.313 89.9338 36.5143
12 1 2.56045 6.62738 -1.78441 67.5988 -9.5649 11.7839
13 1 4.23088 7.25621 -1.99348 4.92642 11.8216 -2.62148
14 1 3.81729 5.52574 -2.26269 20.6658 -87.7683 -80.3942
15 3 3.16824 4.65596 0.126089 0.0548486 -0.329026 1.35655
16 4 2.56119 3.93824 -0.66637 -0.894277 15.3622 -19.2106
17 5 3.19308 4.34971 1.4139 64.4257 20.9525 46.7823
18 6 3.92334 4.68371 2.02648 -32.8331 6.73405 -40.4536
19 2 2.70698 3.13473 1.89361 30.6747 6.96054 61.6708
20 7 3.4382 2.45831 2.33619 19.2408 -2.67461 1.20504
21 7 1.91948 3.28804 2.63148 -32.3926 13.8708 36.6807
22 7 2.17489 2.61746 1.09523 -51.9162 -63.2524 -80.6074
ITEM: TIMESTEP
1
ITEM: NUMBER OF ATOMS
22
ITEM: BOX BOUNDS pp pp pp
-5.0000000000000000e+01 5.0000000000000000e+01
-5.0000000000000000e+01 5.0000000000000000e+01
-5.0000000000000000e+01 5.0000000000000000e+01
ITEM: ATOMS id type x y z fx fy fz
1 1 7.72169 5.81737 -1.12087 4.00243 -0.175399 -8.5706
2 2 7.42063 4.77325 -1.03556 26.4981 30.3977 -7.23349
3 1 8.18197 4.31732 -0.402642 -7.91209 -6.07607 -0.614903
4 1 7.36248 4.28937 -2.01054 0.26881 1.15165 1.97785
5 3 6.09408 4.77675 -0.395788 26.9382 -36.8006 -0.555412
6 4 5.84907 3.72528 0.146573 -28.2244 -3.96305 13.1223
7 5 5.36233 5.86337 -0.474476 13.9893 -10.9414 33.0871
8 6 5.87898 6.69673 -0.716739 -10.7288 0.716516 -6.24461
9 2 3.92654 5.93919 -0.291092 28.5116 13.954 13.2339
10 7 3.80093 6.71708 0.462043 -12.8013 1.27101 -2.19575
11 2 3.62472 6.41465 -1.65721 -32.8214 -10.366 -24.7868
12 1 2.55743 6.61229 -1.75693 0.232776 8.17711 1.49279
13 1 4.2532 7.24865 -1.96958 -8.06902 1.00467 -1.88517
14 1 3.80218 5.52146 -2.25622 1.21779 9.68725 -15.4634
15 3 3.16446 4.65412 0.133235 7.0174 11.3751 -10.3335
16 4 2.55869 3.94517 -0.664219 -3.2402 12.6674 -19.4839
17 5 3.19948 4.34912 1.41231 25.2876 1.94555 27.8572
18 6 3.91424 4.69763 2.035 1.78094 21.7645 -12.6868
19 2 2.70241 3.13654 1.89453 -39.5757 -45 14.4924
20 7 3.45309 2.471 2.32073 5.35081 5.68967 -4.5586
21 7 1.92472 3.2933 2.64201 1.43361 5.76112 3.35017
22 7 2.18841 2.62937 1.07802 0.843569 -12.2408 5.99928
