ITEM: TIMESTEP
0
ITEM: NUMBER OF ATOMS
22
ITEM: BOX BOUNDS pp pp pp
-5.0000000000000000e+01 5.0000000000000000e+01
-5.0000000000000000e+01 5.0000000000000000e+01
-5.0000000000000000e+01 5.0000000000000000e+01
ITEM: ATOMS id type x y z fx fy fz
1 1 0.7351 3.32679 -1.2968 86.064 -19.3332 -11.0901
2 2 1.78823 3.1144 -1.48094 -63.0126 -68.2378 -15.822
3 1 2.18744 3.84026 -2.18935 -3.84023 6.59844 -25.6917
4 1 1.95009 2.11057 -1.87366 -14.6766 83.0966 37.0128
5 3 2.62801 3.35576 -0.255462 -26.1379 -5.09885 14.6267
6 4 2.54849 2.56493 0.677458 4.07042 0.177361 -5.58745
7 5 3.27314 4.52143 -0.245157 18.41 -26.92 -10.8524
8 6 3.31308 5.02625 -1.11903 -13.9624 12.0948 -32.9417
9 2 4.30757 4.98713 0.598267 94.2879 -90.9199 -23.7414
10 7 3.7412 5.74134 1.14461 -52.6407 107.567 63.4815
11 2 4.69618 4.03686 1.73551 -81.8048 103.69 40.2914
12 1 5.37008 4.61806 2.36493 27.8232 16.9784 20.1423
13 1 3.88219 3.89171 2.44576 -3.71667 -11.1884 -10.6319
14 1 5.26436 3.14455 1.47273 58.9067 -109.109 -41.4329
15 3 5.61867 5.57816 -0.066685 -1.31603 -22.864 23.9107
16 4 6.76299 5.04299 0.105165 -47.9108 15.405 -9.33479
17 5 5.46763 6.72121 -0.73734 -3.12394 39.1818 -20.2008
18 6 4.60971 7.23849 -0.865759 36.2691 -38.5593 14.4703
19 2 6.71045 7.37643 -1.18548 62.2309 105.364 -33.7913
20 7 6.55565 8.31385 -1.71969 -9.33793 -59.8138 32.3379
21 7 7.38071 7.74615 -0.409496 -43.6386 -34.5831 -27.7426
22 7 7.32145 6.83088 -1.90462 -22.9431 -3.52588 22.5876
ITEM: TIMESTEP
1
ITEM: NUMBER OF ATOMS
22
ITEM: BOX BOUNDS pp pp pp
-5.0000000000000000e+01 5.0000000000000000e+01
-5.0000000000000000e+01 5.0000000000000000e+01
-5.0000000000000000e+01 5.0000000000000000e+01
ITEM: ATOMS id type x y z fx fy fz
1 1 0.728695 3.31913 -1.31049 2.53492 -2.32671 5.89499
2 2 1.78641 3.11635 -1.47847 13.4868 7.90431 -20.0784
3 1 2.16954 3.81981 -2.2177 -9.11926 -5.55804 -6.67843
4 1 1.96358 2.11178 -1.86258 -2.98232 -1.52765 4.08416
5 3 2.62855 3.35154 -0.25976 -25.4721 -0.317697 15.6974
6 4 2.55078 2.56043 0.67175 4.93291 -0.59056 -4.6442
7 5 3.26976 4.51865 -0.248249 21.9387 -5.89371 -38.0419
8 6 3.28897 5.044 -1.11065 -15.3164 -6.42584 -3.69616
9 2 4.31088 4.98843 0.594998 18.9263 -3.68811 49.4795
10 7 3.75481 5.75257 1.13811 15.3281 13.7503 -3.24721
11 2 4.69925 4.03722 1.74088 9.92006 12.2503 32.063
12 1 5.35881 4.60847 2.39414 7.05652 -1.00551 -4.69182
13 1 3.90272 3.87937 2.468 -8.98797 -9.24193 -12.4981
14 1 5.25719 3.13584 1.48729 -7.96412 0.267112 -11.2674
15 3 5.61487 5.57593 -0.0591466 5.79346 -11.8167 12.1318
16 4 6.75988 5.04992 0.107445 -45.4354 10.8985 -6.4663
17 5 5.47302 6.72089 -0.739931 29.7082 6.56518 -8.01597
18 6 4.61495 7.24301 -0.845839 -4.96294 -12.4878 6.58649
19 2 6.70643 7.37995 -1.18622 33.0361 42.4903 -26.9413
20 7 6.56461 8.31468 -1.72869 -21.7911 0.523137 -0.35335
21 7 7.38362 7.74136 -0.412334 -9.1718 -13.5385 15.5636
22 7 7.34099 6.85518 -1.90041 -11.4587 -20.2304 5.11979
