14
 Atoms. Timestep: 0
1 -1.171 -10.6652 7.65669
2 -2.16102 -11.0298 7.93795
2 -0.646636 -11.5909 7.32485
2 -1.29653 -9.92948 6.77258
1 -0.390972 -9.96552 8.84679
2 -0.457183 -10.6597 9.81013
2 0.656708 -9.8308 8.52929
1 -1.0388 -8.67283 9.20802
2 -2.10829 -8.7724 9.53848
2 -1.16187 -7.93617 8.33071
1 -0.194913 -7.80931 10.2351
2 0.47308 -7.10512 9.6203
2 -0.904076 -7.13635 10.8248
2 0.554106 -8.32131 10.8284
14
 Atoms. Timestep: 1
1 -1.17075 -10.6649 7.6564
2 -2.16109 -11.0283 7.93867
2 -0.647398 -11.5873 7.3252
2 -1.29526 -9.93608 6.77922
1 -0.391254 -9.96676 8.84713
2 -0.454899 -10.6521 9.79858
2 0.655338 -9.83071 8.53087
1 -1.03912 -8.67144 9.20804
2 -2.10328 -8.77383 9.53836
2 -1.16037 -7.94371 8.33555
1 -0.195097 -7.80863 10.2345
2 0.467755 -7.10973 9.62467
2 -0.898602 -7.14095 10.8226
2 0.552407 -8.32335 10.8305
