ITEM: TIMESTEP
0
ITEM: NUMBER OF ATOMS
14
ITEM: BOX BOUNDS pp pp pp
-2.2206855000000001e+01 1.8793144999999999e+01
-1.9677098999999998e+01 2.1322901000000002e+01
-1.9241968000000000e+01 2.1758032000000000e+01
ITEM: ATOMS id type x y z fx fy fz
1 1 -3.54189 -3.47973 7.73835 52.5373 11.855 -47.8258
2 2 -2.70127 -4.23471 7.7847 -19.2281 20.4708 8.32222
3 2 -3.1746 -2.54261 7.22522 -2.25518 -18.4467 23.8193
4 2 -4.1403 -3.84449 6.95065 -23.3168 -12.2956 -9.27893
5 1 -4.28779 -3.23603 8.99886 4.27559 33.6727 68.5451
6 2 -4.81323 -4.09438 9.33482 -13.5273 -17.6022 -2.39799
7 2 -3.58989 -3.08743 9.84983 0.628112 -4.47405 -17.3605
8 1 -5.17653 -1.96106 9.09876 -0.480851 -27.3836 -26.3099
9 2 -5.92556 -2.16525 8.30603 0.0637974 15.1821 14.0626
10 2 -4.57783 -1.0906 8.82416 -2.28426 -0.767133 -5.15736
11 1 -5.76609 -1.67311 10.4973 8.40026 -21.5929 36.2002
12 2 -4.93547 -1.46948 11.2184 -12.9779 -5.39724 -13.4408
13 2 -6.3291 -0.769733 10.5002 -10.5024 14.1187 -4.53156
14 2 -6.42265 -2.44435 11.0096 18.6676 12.6601 -24.6467
ITEM: TIMESTEP
1
ITEM: NUMBER OF ATOMS
14
ITEM: BOX BOUNDS pp pp pp
-2.2206855000000001e+01 1.8793144999999999e+01
-1.9677098999999998e+01 2.1322901000000002e+01
-1.9241968000000000e+01 2.1758032000000000e+01
ITEM: ATOMS id type x y z fx fy fz
1 1 -3.54097 -3.47953 7.73752 44.8336 10.1547 -46.5835
2 2 -2.70526 -4.23046 7.78643 -16.0495 17.6745 8.12712
3 2 -3.17507 -2.54644 7.23016 -0.823343 -15.0776 21.4679
4 2 -4.14514 -3.84704 6.94873 -20.9307 -10.9684 -7.04672
5 1 -4.28772 -3.23544 9.00005 2.3169 30.12 65.461
6 2 -4.81603 -4.09803 9.33433 -12.0152 -15.0874 -2.99159
7 2 -3.58976 -3.08836 9.84623 1.9021 -4.07861 -15.1045
8 1 -5.17654 -1.96153 9.0983 0.384872 -26.0401 -23.9015
9 2 -5.92555 -2.1621 8.30894 -1.10156 14.4418 12.4946
10 2 -4.5783 -1.09076 8.82309 -2.27972 -0.864393 -5.03116
11 1 -5.76594 -1.67349 10.4979 7.66693 -16.8804 31.087
12 2 -4.93816 -1.4706 11.2156 -10.8383 -4.87926 -11.3571
13 2 -6.33128 -0.766803 10.4992 -9.08988 11.7582 -4.32015
14 2 -6.41878 -2.44173 11.0045 16.0238 9.72689 -22.3014
