14
 Atoms. Timestep: 0
1 -3.54189 -3.47973 7.73835
2 -2.70127 -4.23471 7.7847
2 -3.1746 -2.54261 7.22522
2 -4.1403 -3.84449 6.95065
1 -4.28779 -3.23603 8.99886
2 -4.81323 -4.09438 9.33482
2 -3.58989 -3.08743 9.84983
1 -5.17653 -1.96106 9.09876
2 -5.92556 -2.16525 8.30603
2 -4.57783 -1.0906 8.82416
1 -5.76609 -1.67311 10.4973
2 -4.93547 -1.46948 11.2184
2 -6.3291 -0.769733 10.5002
2 -6.42265 -2.44435 11.0096
14
 Atoms. Timestep: 1
1 -3.54097 -3.47953 7.73752
2 -2.70526 -4.23046 7.78643
2 -3.17507 -2.54644 7.23016
2 -4.14514 -3.84704 6.94873
1 -4.28772 -3.23544 9.00005
2 -4.81603 -4.09803 9.33433
2 -3.58976 -3.08836 9.84623
1 -5.17654 -1.96153 9.0983
2 -5.92555 -2.1621 8.30894
2 -4.5783 -1.09076 8.82309
1 -5.76594 -1.67349 10.4979
2 -4.93816 -1.4706 11.2156
2 -6.33128 -0.766803 10.4992
2 -6.41878 -2.44173 11.0045
