22
 Atoms. Timestep: 0
1 2.0708 2.04951 -1.68543
2 2.39621 2.91078 -2.26889
1 1.61794 3.60936 -1.96168
1 2.41837 2.70122 -3.33833
3 3.79874 3.26494 -1.67119
4 4.69599 3.38816 -2.43215
5 3.88655 3.70723 -0.41496
6 2.95974 3.50164 -0.0702112
2 5.00771 4.20434 0.442683
7 5.27144 3.34324 1.05673
2 6.29345 4.59001 -0.355839
1 6.98995 5.09377 0.3144
1 6.86532 3.75629 -0.763251
1 5.90407 5.20688 -1.16575
3 4.77205 5.44896 1.30083
4 5.21414 5.49968 2.38263
5 4.1614 6.45912 0.723903
6 3.82641 6.44246 -0.228779
2 3.77086 7.74263 1.42901
7 4.34608 8.5066 0.90597
7 2.69027 7.85631 1.34239
7 4.02332 7.82528 2.48614
22
 Atoms. Timestep: 1
1 2.04839 2.04731 -1.70166
2 2.39623 2.91284 -2.26555
1 1.59525 3.59644 -1.98407
1 2.43538 2.68633 -3.33104
3 3.7993 3.26136 -1.676
4 4.69868 3.38352 -2.43814
5 3.88115 3.70446 -0.417781
6 2.95655 3.52357 -0.0537912
2 5.00999 4.20629 0.439862
7 5.29489 3.33901 1.03548
2 6.29755 4.5879 -0.351899
1 6.97614 5.08456 0.341595
1 6.88018 3.75063 -0.736107
1 5.88957 5.22049 -1.14024
3 4.76796 5.44669 1.30696
4 5.21187 5.50644 2.38588
5 4.16653 6.45926 0.722997
6 3.82133 6.4504 -0.226136
2 3.7684 7.74502 1.42837
7 4.34347 8.50635 0.901331
7 2.68799 7.86175 1.34356
7 4.04672 7.84702 2.47729
