22
 Atoms. Timestep: 0
1 1.23722 1.78272 0.0632698
2 2.13774 2.19031 0.522653
1 2.93183 1.46703 0.708085
1 1.80427 2.70665 1.42282
3 2.8304 3.15246 -0.481377
4 2.41019 3.116 -1.66658
5 3.58264 4.10378 0.1046
6 3.57333 4.30348 1.09462
2 4.3356 5.2235 -0.63263
7 4.35024 4.89806 -1.67281
2 3.19525 6.39162 -0.691792
1 3.64489 7.28106 -1.13318
1 2.27984 6.19658 -1.25044
1 3.12215 6.62881 0.369574
3 5.69371 5.69313 -0.104966
4 6.50396 6.13132 -0.924358
5 5.96084 5.6618 1.20919
6 5.28132 5.21891 1.81102
2 7.25876 5.69483 1.64525
7 7.75623 6.59856 1.29325
7 7.1894 5.67002 2.73276
7 7.83669 4.81004 1.37836
22
 Atoms. Timestep: 1
1 1.23542 1.78726 0.062025
2 2.13605 2.19247 0.523292
1 2.91147 1.44405 0.686674
1 1.81874 2.69656 1.43615
3 2.8302 3.1482 -0.485687
4 2.41294 3.11162 -1.67182
5 3.57984 4.10252 0.10264
6 3.55015 4.3092 1.09082
2 4.33487 5.22564 -0.637336
7 4.37959 4.89292 -1.67435
2 3.20169 6.38888 -0.683397
1 3.63798 7.28777 -1.11901
1 2.28463 6.18019 -1.23435
1 3.09892 6.6398 0.372337
3 5.69003 5.69161 -0.0980618
4 6.50146 6.13799 -0.921894
5 5.96501 5.66014 1.20677
6 5.28535 5.23683 1.82237
2 7.2552 5.69814 1.64551
7 7.75826 6.59516 1.28442
7 7.20312 5.67394 2.734
7 7.86136 4.83339 1.37555
