ITEM: TIMESTEP
0
ITEM: NUMBER OF ATOMS
22
ITEM: BOX BOUNDS pp pp pp
-5.0000000000000000e+01 5.0000000000000000e+01
-5.0000000000000000e+01 5.0000000000000000e+01
-5.0000000000000000e+01 5.0000000000000000e+01
ITEM: ATOMS id type x y z fx fy fz
1 1 4.36526 6.71564 2.65728 0.411761 10.7876 -0.0561366
2 2 4.19252 5.74583 3.1239 -49.7226 -79.5028 1.5913
3 1 3.12665 5.5179 3.13287 94.8262 24.7635 15.2532
4 1 4.75871 5.65366 4.05074 -40.8258 8.13828 -40.1806
5 3 4.81195 4.66535 2.15725 -13.381 47.2737 0.291829
6 4 5.85276 4.12165 2.52845 -9.93034 -8.41356 -16.953
7 5 4.23916 4.61012 0.905856 -81.4392 70.1135 65.6511
8 6 3.408 5.18183 0.856589 87.6138 -61.6943 -10.2704
9 2 4.97825 4.3132 -0.294275 42.3258 -40.5457 11.4276
10 7 5.98376 4.60505 0.00883285 -50.7179 -5.54776 -44.7617
11 2 4.97001 2.75651 -0.509159 -16.2429 101.028 214.306
12 1 5.11843 2.46894 0.531694 -23.3408 -5.59781 -83.7278
13 1 4.0153 2.51151 -0.974573 -79.0888 -41.1885 -33.7522
14 1 5.86826 2.36967 -0.990411 117.301 -46.8043 -79.5377
15 3 4.28912 5.06206 -1.45468 35.8158 111.723 32.3925
16 4 4.29205 6.29869 -1.44658 23.2603 -9.49226 4.31864
17 5 3.48974 4.57939 -2.30706 -39.2925 -61.3091 -42.6607
18 6 3.08226 3.71252 -1.98675 -2.25821 -17.6909 -6.97055
19 2 2.94281 5.16026 -3.55457 108.781 54.2886 -36.8022
20 7 3.71832 5.62438 -4.16389 -78.9314 -43.2165 63.9776
21 7 2.40342 4.42058 -4.1462 -10.9572 -38.1292 -24.4188
22 7 2.10951 5.82444 -3.32529 -14.2067 31.0169 10.8822
ITEM: TIMESTEP
1
ITEM: NUMBER OF ATOMS
22
ITEM: BOX BOUNDS pp pp pp
-5.0000000000000000e+01 5.0000000000000000e+01
-5.0000000000000000e+01 5.0000000000000000e+01
-5.0000000000000000e+01 5.0000000000000000e+01
ITEM: ATOMS id type x y z fx fy fz
1 1 4.34108 6.71422 2.64588 0.791875 0.242942 7.31709
2 2 4.19093 5.74759 3.12667 19.4552 -51.5165 -58.8567
3 1 3.12923 5.50122 3.11303 0.578031 4.96929 19.6368
4 1 4.76678 5.63931 4.04579 -14.6707 6.07106 5.7521
5 3 4.81272 4.66204 2.1527 -14.1166 51.3058 4.16259
6 4 5.85487 4.11704 2.52259 -11.0905 -7.80268 -17.9372
7 5 4.23429 4.60879 0.903906 11.5637 10.176 72.9569
8 6 3.40498 5.18426 0.869679 0.39708 -1.87138 -18.0493
9 2 4.98066 4.31538 -0.296931 -10.6471 -59.054 -0.125351
10 7 5.99777 4.59281 -0.0201338 -1.4966 11.5621 -25.5993
11 2 4.97423 2.75683 -0.500762 6.62136 43.653 28.2832
12 1 5.09654 2.45467 0.539352 -8.87111 -24.0855 -7.47496
13 1 4.02019 2.49295 -0.957131 6.35181 -16.2634 5.18531
14 1 5.87321 2.37389 -0.983763 -6.39314 5.73693 -11.9345
15 3 4.28597 5.06217 -1.44699 34.0667 119.745 23.1379
16 4 4.28987 6.30529 -1.44412 22.7102 -16.922 5.7974
17 5 3.49459 4.57757 -2.30999 -41.8582 -68.4464 -34.8813
18 6 3.07951 3.72137 -1.97128 1.01968 -9.60631 -12.3423
19 2 2.9396 5.1629 -3.55537 -12.8606 -0.361214 7.61263
20 7 3.71284 5.62866 -4.16633 -0.161483 1.8899 3.30542
21 7 2.4131 4.41505 -4.14835 8.5605 -5.66687 0.473714
22 7 2.13086 5.85592 -3.32351 10.0498 6.24469 3.57992
