ITEM: TIMESTEP
0
ITEM: NUMBER OF ATOMS
22
ITEM: BOX BOUNDS pp pp pp
-5.0000000000000000e+01 5.0000000000000000e+01
-5.0000000000000000e+01 5.0000000000000000e+01
-5.0000000000000000e+01 5.0000000000000000e+01
ITEM: ATOMS id type x y z fx fy fz
1 1 5.59961 2.13356 2.01672 -0.399716 6.85331 -29.8321
2 2 6.27438 2.34078 1.18616 24.7833 -85.5025 46.6912
3 1 6.7294 1.37447 0.968668 -32.939 88.1108 13.3255
4 1 6.95335 3.0394 1.67506 11.1582 1.59989 -11.076
5 3 5.62413 2.93321 -0.024624 45.3399 -43.0386 -0.659104
6 4 5.459 2.02755 -0.884941 -20.2338 60.8155 0.935904
7 5 5.54365 4.29409 -0.0217201 -62.4128 31.9586 61.5317
8 6 5.63134 4.71027 0.894361 3.54947 -40.8067 -95.5777
9 2 4.6642 5.12578 -0.959851 37.4874 18.1415 -5.99477
10 7 5.37182 5.70857 -1.54954 -56.4982 -44.5309 32.2436
11 2 3.75373 4.18943 -1.87547 -115.62 -24.9976 211.663
12 1 2.96627 3.61485 -1.38775 107.506 66.8294 -44.1106
13 1 3.19383 4.6676 -2.67918 -56.3441 74.559 -80.1032
14 1 4.41203 3.5772 -2.49183 88.2952 -90.0438 -75.7725
15 3 3.8542 6.19721 -0.098998 53.8781 -1.76792 -14.627
16 4 4.41777 7.22273 0.218293 17.4059 12.3411 -4.6794
17 5 2.66263 6.00187 0.37693 -28.284 55.9623 22.6489
18 6 2.21645 5.17046 0.0166887 -35.0963 -54.3816 -15.2651
19 2 1.81643 7.06752 1.06322 107.958 106.356 -3.92166
20 7 1.13891 7.53962 0.35175 14.2959 -17.0437 17.5508
21 7 1.26636 6.59251 1.87556 -13.1183 -4.51313 18.9906
22 7 2.45261 7.87597 1.42347 -90.712 -116.901 -43.9625
ITEM: TIMESTEP
1
ITEM: NUMBER OF ATOMS
22
ITEM: BOX BOUNDS pp pp pp
-5.0000000000000000e+01 5.0000000000000000e+01
-5.0000000000000000e+01 5.0000000000000000e+01
-5.0000000000000000e+01 5.0000000000000000e+01
ITEM: ATOMS id type x y z fx fy fz
1 1 5.57526 2.13133 1.99914 -11.7896 2.99872 -9.76508
2 2 6.27409 2.34243 1.18972 -2.01174 -1.85474 39.2753
3 1 6.70546 1.37094 0.948424 6.8756 6.80034 -0.927621
4 1 6.9722 3.02369 1.67616 7.64684 0.0761774 -12.0854
5 3 5.62592 2.92833 -0.0291886 46.0792 -35.9873 3.00763
6 4 5.46097 2.02384 -0.890563 -19.4427 60.0083 0.992335
7 5 5.53906 4.29219 -0.0237311 -71.5329 -8.75109 -29.6258
8 6 5.61087 4.71704 0.889746 13.852 -1.93851 -3.64198
9 2 4.66652 5.12898 -0.962811 -9.61039 -26.5579 35.6733
10 7 5.38463 5.68824 -1.56252 -10.5558 -2.28139 -5.6245
11 2 3.75622 4.18755 -1.86712 4.88909 15.7353 -19.2211
12 1 2.97154 3.61561 -1.37187 12.6005 -1.66855 13.4559
13 1 3.20343 4.67306 -2.67136 3.96126 20.4388 8.12477
14 1 4.41096 3.57244 -2.4844 -0.102986 -7.76582 7.07299
15 3 3.85136 6.19535 -0.0921309 69.7372 6.33231 -22.2973
16 4 4.41551 7.22962 0.220634 13.8633 5.67965 -5.73577
17 5 2.66764 6.0018 0.374979 -74.4162 4.85497 8.91808
18 6 2.20688 5.17169 0.0304378 -2.84686 -1.81787 5.88047
19 2 1.81321 7.07106 1.063 31.7869 -31.775 -23.7546
20 7 1.15277 7.54933 0.33968 -3.85553 -6.70169 2.61995
21 7 1.2756 6.59396 1.88242 -2.5691 7.31748 -0.176983
22 7 2.45809 7.87674 1.41387 -2.55797 -3.14216 7.83538
