ITEM: TIMESTEP
0
ITEM: NUMBER OF ATOMS
14
ITEM: BOX BOUNDS pp pp pp
-2.2206855000000001e+01 1.8793144999999999e+01
-1.9677098999999998e+01 2.1322901000000002e+01
-1.9241968000000000e+01 2.1758032000000000e+01
ITEM: ATOMS id type x y z fx fy fz
1 1 0.906544 -11.2238 6.64637 6.62791 -32.192 40.983
2 2 1.08081 -10.6695 5.72559 -4.20184 -6.03461 -5.6815
3 2 -0.038802 -11.852 6.68216 22.2842 21.596 -11.3346
4 2 1.75359 -11.9488 6.85388 -21.2032 17.3035 -15.068
5 1 0.925017 -10.2526 7.85096 -17.5458 -24.2342 43.013
6 2 0.223273 -9.43393 7.65201 0.446308 -3.99376 3.64296
7 2 0.597141 -10.807 8.82412 10.026 24.5729 -44.8772
8 1 2.31616 -9.67201 8.1216 37.2343 4.06961 -57.6809
9 2 2.65527 -9.33163 7.05901 -8.74916 -0.460469 53.3102
10 2 3.07585 -10.4656 8.33999 -19.2457 10.0207 0.825077
11 1 2.38675 -8.59517 9.24364 2.256 6.81378 -40.383
12 2 2.33671 -7.54339 8.93092 -8.10458 -8.76228 -8.35611
13 2 1.57424 -8.7804 9.88456 -13.4726 -0.794439 26.2444
14 2 3.33156 -8.61584 9.72787 13.648 -7.90479 15.3628
ITEM: TIMESTEP
1
ITEM: NUMBER OF ATOMS
14
ITEM: BOX BOUNDS pp pp pp
-2.2206855000000001e+01 1.8793144999999999e+01
-1.9677098999999998e+01 2.1322901000000002e+01
-1.9241968000000000e+01 2.1758032000000000e+01
ITEM: ATOMS id type x y z fx fy fz
1 1 0.90666 -11.2244 6.64709 6.78126 -26.3565 38.6251
2 2 1.07994 -10.6708 5.72441 -4.16323 -6.16511 -4.85543
3 2 -0.0341771 -11.8475 6.6798 18.6815 18.9431 -10.8476
4 2 1.74919 -11.9452 6.85076 -17.9245 14.3134 -14.0021
5 1 0.924711 -10.2531 7.85171 -14.6071 -20.6073 36.0757
6 2 0.223366 -9.43475 7.65277 0.195444 -3.71979 3.54458
7 2 0.599222 -10.8019 8.81481 7.91386 20.8306 -38.1882
8 1 2.31681 -9.67194 8.1206 32.2366 3.96795 -50.1796
9 2 2.65346 -9.33173 7.07008 -6.49506 1.46739 45.9283
10 2 3.07185 -10.4636 8.34017 -17.0942 8.03472 1.16929
11 1 2.38679 -8.59506 9.24293 1.72883 4.81041 -35.8831
12 2 2.33502 -7.54521 8.92919 -7.89933 -7.75772 -8.45841
13 2 1.57144 -8.78056 9.89001 -10.5495 -0.241799 23.3679
14 2 3.33439 -8.61748 9.73105 11.1956 -7.51935 13.7036
