14
 Atoms. Timestep: 0
1 0.906544 -11.2238 6.64637
2 1.08081 -10.6695 5.72559
2 -0.038802 -11.852 6.68216
2 1.75359 -11.9488 6.85388
1 0.925017 -10.2526 7.85096
2 0.223273 -9.43393 7.65201
2 0.597141 -10.807 8.82412
1 2.31616 -9.67201 8.1216
2 2.65527 -9.33163 7.05901
2 3.07585 -10.4656 8.33999
1 2.38675 -8.59517 9.24364
2 2.33671 -7.54339 8.93092
2 1.57424 -8.7804 9.88456
2 3.33156 -8.61584 9.72787
14
 Atoms. Timestep: 1
1 0.90666 -11.2244 6.64709
2 1.07994 -10.6708 5.72441
2 -0.0341771 -11.8475 6.6798
2 1.74919 -11.9452 6.85076
1 0.924711 -10.2531 7.85171
2 0.223366 -9.43475 7.65277
2 0.599222 -10.8019 8.81481
1 2.31681 -9.67194 8.1206
2 2.65346 -9.33173 7.07008
2 3.07185 -10.4636 8.34017
1 2.38679 -8.59506 9.24293
2 2.33502 -7.54521 8.92919
2 1.57144 -8.78056 9.89001
2 3.33439 -8.61748 9.73105
