ITEM: TIMESTEP
0
ITEM: NUMBER OF ATOMS
14
ITEM: BOX BOUNDS pp pp pp
-2.2206855000000001e+01 1.8793144999999999e+01
-1.9677098999999998e+01 2.1322901000000002e+01
-1.9241968000000000e+01 2.1758032000000000e+01
ITEM: ATOMS id type x y z fx fy fz
1 1 -4.89439 -6.0437 8.85328 -29.4456 -60.4814 15.4343
2 2 -5.22121 -5.96676 7.82356 4.37951 10.786 -5.69615
3 2 -5.62219 -5.54466 9.48946 3.53138 8.8229 -0.10825
4 2 -5.13775 -7.16746 9.08554 21.8598 51.6074 -10.9667
5 1 -3.43621 -5.61688 9.12378 6.77114 34.3418 3.91837
6 2 -2.84546 -5.93619 8.25111 -1.57363 -1.4316 8.28733
7 2 -3.29408 -4.48255 9.1631 -8.31874 -35.5822 -0.708003
8 1 -2.92204 -6.27491 10.4302 -11.0663 -0.087667 12.0069
9 2 -3.55681 -7.1545 10.5315 8.90812 -5.79231 7.79496
10 2 -3.0055 -5.77256 11.4261 -11.2476 6.91346 -25.77
11 1 -1.48226 -6.68196 10.3539 34.8777 -42.4647 20.8508
12 2 -0.788737 -5.83518 10.2007 -7.7711 -7.88382 -5.73175
13 2 -1.16287 -7.14422 11.3514 -11.6671 15.3051 -31.6667
14 2 -1.34743 -7.5195 9.60653 0.762439 25.9472 12.3549
ITEM: TIMESTEP
1
ITEM: NUMBER OF ATOMS
14
ITEM: BOX BOUNDS pp pp pp
-2.2206855000000001e+01 1.8793144999999999e+01
-1.9677098999999998e+01 2.1322901000000002e+01
-1.9241968000000000e+01 2.1758032000000000e+01
ITEM: ATOMS id type x y z fx fy fz
1 1 -4.89491 -6.04475 8.85355 -26.7785 -51.1734 13.0599
2 2 -5.22031 -5.96452 7.82238 4.38265 10.4247 -4.83218
3 2 -5.62145 -5.54282 9.48944 3.48158 8.38375 -0.239217
4 2 -5.13322 -7.15675 9.08326 19.7495 43.3428 -9.30133
5 1 -3.4361 -5.61628 9.12385 5.05354 28.2786 4.48781
6 2 -2.84579 -5.93649 8.25283 -1.11528 -1.52875 7.53574
7 2 -3.29581 -4.48994 9.16296 -7.57645 -30.0881 -0.559774
8 1 -2.92223 -6.27491 10.4304 -10.4326 -1.09032 9.38223
9 2 -3.55496 -7.1557 10.5332 8.61449 -5.66381 7.65465
10 2 -3.00783 -5.77112 11.4208 -11.1773 7.85387 -23.1715
11 1 -1.48166 -6.68271 10.3542 31.4027 -37.4535 18.5814
12 2 -0.79035 -5.83681 10.1995 -6.90898 -6.94484 -5.69774
13 2 -1.16529 -7.14105 11.3448 -9.90434 12.9128 -26.7281
14 2 -1.34727 -7.51411 9.6091 1.20894 22.7462 9.82812
