ITEM: TIMESTEP
0
ITEM: NUMBER OF ATOMS
14
ITEM: BOX BOUNDS pp pp pp
-2.2206855000000001e+01 1.8793144999999999e+01
-1.9677098999999998e+01 2.1322901000000002e+01
-1.9241968000000000e+01 2.1758032000000000e+01
ITEM: ATOMS id type x y z fx fy fz
1 1 -5.78533 -2.18023 5.36617 22.007 38.8694 14.0091
2 2 -5.27839 -3.12158 5.50561 -2.20116 -10.2377 1.76935
3 2 -6.85021 -2.20693 5.47412 -14.3807 -14.6442 -12.2098
4 2 -5.59196 -1.56098 6.26301 7.95632 -8.11689 -10.0379
5 1 -5.26447 -1.41977 4.11318 -17.7775 15.5803 -22.2416
6 2 -4.27934 -0.880955 4.29113 -20.9167 -26.9568 -2.93186
7 2 -5.19292 -2.15424 3.23489 1.95471 27.1661 27.7329
8 1 -6.27171 -0.237279 3.75956 23.1225 14.2365 16.17
9 2 -6.39074 0.392935 4.71728 -2.38398 -21.1159 -37.0789
10 2 -7.26277 -0.576929 3.40833 8.74142 -2.8732 9.01176
11 1 -5.67124 0.669026 2.62717 4.44604 23.6696 -46.6354
12 2 -5.15759 0.071137 1.77711 -24.8318 19.9158 34.9153
13 2 -6.3933 1.43146 2.12475 21.4251 -40.0969 24.8032
14 2 -4.88762 1.36356 2.99699 -7.16124 -15.3962 2.7237
ITEM: TIMESTEP
1
ITEM: NUMBER OF ATOMS
14
ITEM: BOX BOUNDS pp pp pp
-2.2206855000000001e+01 1.8793144999999999e+01
-1.9677098999999998e+01 2.1322901000000002e+01
-1.9241968000000000e+01 2.1758032000000000e+01
ITEM: ATOMS id type x y z fx fy fz
1 1 -5.78494 -2.17956 5.36642 19.9688 35.8101 12.4978
2 2 -5.27884 -3.1237 5.50598 -2.59188 -8.87579 1.4257
3 2 -6.85319 -2.20996 5.47159 -12.1315 -14.1524 -12.1446
4 2 -5.59031 -1.56266 6.26093 7.96463 -6.92569 -8.37331
5 1 -5.26478 -1.4195 4.11279 -21.0744 16.6574 -18.2921
6 2 -4.28368 -0.88655 4.29052 -17.3655 -24.6754 -2.34925
7 2 -5.19252 -2.1486 3.24064 2.09295 23.5998 23.539
8 1 -6.27131 -0.237031 3.75984 24.3785 11.4791 10.9305
9 2 -6.39124 0.388553 4.70959 -2.8218 -17.7766 -31.9177
10 2 -7.26096 -0.577525 3.4102 7.84669 -3.09106 8.54125
11 1 -5.67117 0.669439 2.62635 4.19327 20.3501 -38.0249
12 2 -5.16274 0.0752703 1.78436 -21.7398 16.5684 29.7367
13 2 -6.38885 1.42314 2.1299 17.1022 -35.0325 21.442
14 2 -4.88911 1.36036 2.99756 -5.82208 -13.9354 2.98905
