22
 Atoms. Timestep: 0
1 5.79848 7.63046 -1.55915
2 4.71817 7.61431 -1.70328
1 4.54872 7.25352 -2.71778
1 4.03945 8.46585 -1.75155
3 3.94559 6.64352 -0.764488
4 2.75007 6.57931 -0.955066
5 4.54168 5.93694 0.154989
6 5.53519 5.91442 -0.0253594
2 3.97345 4.69348 0.777417
7 3.89299 5.06215 1.80002
2 2.54131 4.33644 0.331403
1 1.88731 5.1379 0.674978
1 2.58332 4.06473 -0.723352
1 2.25388 3.44129 0.882931
3 5.02319 3.55736 0.836717
4 5.86841 3.26281 1.71164
5 4.82761 2.93176 -0.263195
6 4.07644 3.15766 -0.899448
2 5.71186 1.95591 -0.827383
7 6.62926 2.4046 -1.20838
7 6.13324 1.16596 -0.205681
7 5.23763 1.46445 -1.6769
22
 Atoms. Timestep: 1
1 5.79678 7.63051 -1.56534
2 4.71564 7.61415 -1.70312
1 4.53805 7.24052 -2.71156
1 4.04635 8.47333 -1.74734
3 3.94641 6.64001 -0.769611
4 2.75221 6.57513 -0.960908
5 4.53694 5.93396 0.152012
6 5.53382 5.92978 -0.0101768
2 3.97587 4.69677 0.773835
7 3.91483 5.05551 1.8013
2 2.5455 4.33511 0.338152
1 1.87451 5.1167 0.694504
1 2.6016 4.05345 -0.713335
1 2.23447 3.45737 0.904662
3 5.01894 3.55577 0.844022
4 5.86565 3.26984 1.71387
5 4.83361 2.92992 -0.266078
6 4.07084 3.17399 -0.881466
2 5.70989 1.95818 -0.826958
7 6.62127 2.41145 -1.21687
7 6.13909 1.17442 -0.20276
7 5.25226 1.48043 -1.69323
