14
 Atoms. Timestep: 0
1 -5.78811 -1.8292 1.7423
2 -6.02913 -2.85542 1.8626
2 -5.0224 -1.71067 0.912273
2 -6.7524 -1.32158 1.4724
1 -5.25589 -1.20034 3.05321
2 -5.08212 -0.152189 2.80969
2 -5.97017 -1.23517 3.88232
1 -3.97741 -1.8838 3.55375
2 -3.24185 -1.77994 2.70202
2 -4.13561 -3.05556 3.66053
1 -3.37876 -1.23369 4.77688
2 -4.0881 -1.21056 5.7407
2 -2.46909 -1.69165 5.04887
2 -3.23451 -0.155685 4.60832
14
 Atoms. Timestep: 1
1 -5.78809 -1.8286 1.74209
2 -6.0293 -2.8596 1.86311
2 -5.02728 -1.71149 0.916363
2 -6.74802 -1.32339 1.47238
1 -5.25592 -1.20045 3.05319
2 -5.08151 -0.151848 2.81111
2 -5.97112 -1.23509 3.88073
1 -3.9773 -1.8849 3.55302
2 -3.24476 -1.78073 2.70677
2 -4.13406 -3.04194 3.66068
1 -3.37988 -1.23312 4.77807
2 -4.07982 -1.21286 5.72815
2 -2.46444 -1.69339 5.05012
2 -3.23303 -0.157466 4.60757
