22
 Atoms. Timestep: 0
1 3.52391 2.78222 -1.38299
2 4.16584 2.09509 -0.831747
1 5.10868 1.87409 -1.33206
1 3.54625 1.2796 -0.458677
3 4.74791 2.71064 0.499801
4 5.70745 2.23668 1.10023
5 4.19484 3.77339 1.07935
6 4.52898 3.77649 2.03247
2 3.69472 5.07641 0.647477
7 2.63319 4.97103 0.423546
2 3.9446 5.96587 1.91465
1 3.13762 6.68204 2.06951
1 4.08567 5.33427 2.79174
1 4.7429 6.57437 1.48975
3 4.11531 5.63445 -0.779501
4 4.68725 5.03859 -1.58288
5 4.02015 7.02067 -0.897037
6 3.20338 7.3625 -0.411099
2 4.56396 7.71528 -1.98759
7 4.06597 8.68379 -2.0333
7 5.59283 8.0124 -1.78449
7 4.4124 7.08686 -2.86521
22
 Atoms. Timestep: 1
1 3.51038 2.7692 -1.38614
2 4.16481 2.09913 -0.828618
1 5.08557 1.85038 -1.35627
1 3.56723 1.2655 -0.459756
3 4.7485 2.70677 0.494693
4 5.70958 2.23199 1.09443
5 4.19169 3.77078 1.07727
6 4.50398 3.79287 2.03752
2 3.69718 5.07914 0.644366
7 2.64075 4.95776 0.404947
2 3.94753 5.96346 1.92025
1 3.12762 6.66052 2.09329
1 4.10636 5.33957 2.79982
1 4.73731 6.59586 1.51475
3 4.11151 5.63466 -0.770774
4 4.68525 5.04452 -1.58115
5 4.02398 7.01876 -0.898318
6 3.21826 7.3725 -0.402546
2 4.56015 7.7189 -1.98669
7 4.07671 8.69369 -2.0512
7 5.59169 8.00784 -1.7854
7 4.43617 7.10567 -2.87926
