14
 Atoms. Timestep: 0
1 2.49968 -10.5158 4.44529
2 1.94302 -11.2302 5.12872
2 2.16545 -10.8122 3.38633
2 2.32069 -9.47163 4.61947
1 4.0216 -10.8045 4.52301
2 4.19515 -11.8608 4.44254
2 4.432 -10.4572 3.58443
1 4.72637 -10.2034 5.76014
2 4.17117 -10.6192 6.63273
2 4.6283 -9.05596 5.70465
1 6.21745 -10.6589 5.78397
2 6.31581 -11.7101 6.0839
2 6.7827 -10.4656 4.85722
2 6.82544 -10.0295 6.5031
14
 Atoms. Timestep: 1
1 2.4997 -10.5168 4.44484
2 1.94542 -11.2244 5.12635
2 2.16704 -10.8089 3.39392
2 2.31859 -9.46971 4.62034
1 4.02133 -10.8043 4.52292
2 4.1951 -11.8634 4.44381
2 4.43381 -10.4552 3.58448
1 4.72626 -10.2031 5.75993
2 4.17369 -10.6164 6.63138
2 4.6292 -9.06466 5.70618
1 6.2178 -10.6583 5.78434
2 6.31592 -11.7092 6.08303
2 6.78004 -10.467 4.85736
2 6.82104 -10.0335 6.50084
