22
 Atoms. Timestep: 0
1 5.76667 2.45089 -2.87017
2 5.59524 2.20834 -1.82142
1 6.36902 1.70411 -1.24253
1 4.86179 1.40276 -1.85582
3 5.25828 3.55825 -0.989517
4 5.23225 4.60886 -1.58982
5 5.17826 3.40995 0.328868
6 5.11511 2.45657 0.656254
2 4.63497 4.4767 1.15419
7 5.40165 4.75341 1.87788
2 3.59464 3.97924 2.19677
1 3.33579 4.76211 2.90966
1 2.62733 3.79424 1.72967
1 3.86507 3.13018 2.82451
3 4.12033 5.72816 0.492723
4 4.84664 6.71375 0.750534
5 2.92432 5.7859 -0.134422
6 2.31845 4.98582 -0.0209056
2 2.66972 6.8551 -1.21181
7 1.8362 7.5247 -0.999715
7 3.52194 7.5147 -1.04829
7 2.50259 6.4094 -2.19238
22
 Atoms. Timestep: 1
1 5.7442 2.44584 -2.87314
2 5.59346 2.21254 -1.81912
1 6.36326 1.67794 -1.26262
1 4.87658 1.39206 -1.85043
3 5.25983 3.55266 -0.994836
4 5.23449 4.60441 -1.59568
5 5.17416 3.40816 0.325457
6 5.09448 2.46419 0.675713
2 4.63646 4.4791 1.15254
7 5.42759 4.74362 1.85414
2 3.59984 3.97905 2.20231
1 3.32288 4.74362 2.92813
1 2.63128 3.77906 1.74406
1 3.84996 3.13823 2.84927
3 4.11693 5.72723 0.500525
4 4.84382 6.72041 0.752605
5 2.92995 5.78559 -0.137234
6 2.31365 4.99626 -0.00593772
2 2.66608 6.85698 -1.20998
7 1.84026 7.5405 -1.01269
7 3.52449 7.51021 -1.05331
7 2.52783 6.43037 -2.20345
