ITEM: TIMESTEP
0
ITEM: NUMBER OF ATOMS
22
ITEM: BOX BOUNDS pp pp pp
-5.0000000000000000e+01 5.0000000000000000e+01
-5.0000000000000000e+01 5.0000000000000000e+01
-5.0000000000000000e+01 5.0000000000000000e+01
ITEM: ATOMS id type x y z fx fy fz
1 1 8.25132 5.69977 0.751896 41.0252 80.2989 22.4756
2 2 7.68634 4.81182 0.468294 -82.3606 -64.1242 -86.5021
3 1 7.73099 4.13792 1.32384 10.0303 -22.5403 7.62442
4 1 8.06839 4.47061 -0.493846 -10.0106 4.4851 52.5191
5 3 6.14802 5.11691 0.28884 48.3623 30.8708 48.2878
6 4 5.54077 5.55724 1.34278 17.9981 -30.8994 -80.5506
7 5 5.73953 4.9325 -0.996771 -126.673 52.6739 112.275
8 6 6.40096 4.49385 -1.62142 92.4952 -51.0371 -82.2588
9 2 4.32527 4.82269 -1.45934 -25.6324 12.4926 72.001
10 7 4.08988 5.54329 -2.24255 3.97039 15.1038 6.1576
11 2 4.21062 3.48983 -2.13594 28.2982 20.0918 28.2113
12 1 4.96362 2.74677 -1.87333 3.7534 -6.26508 6.41011
13 1 3.17354 3.15546 -2.10842 -51.8078 -27.1534 5.1056
14 1 4.35172 3.89123 -3.13947 15.1003 -5.13807 -72.6519
15 3 3.14514 4.94653 -0.336355 13.6739 -22.9653 -21.7058
16 4 2.09832 5.54684 -0.536405 6.54348 22.1354 -31.0526
17 5 3.16574 4.1751 0.756351 -11.1194 32.7252 -52.241
18 6 4.09433 3.83124 0.955285 21.1578 -24.6537 30.6627
19 2 1.95724 4.07092 1.54813 98.1419 67.0125 47.7487
20 7 2.11059 3.43629 2.42095 13.7156 -53.1817 61.3484
21 7 1.71569 5.04434 1.97498 -2.27142 14.3478 0.917505
22 7 1.08445 3.73702 0.987012 -104.391 -44.2796 -74.7819
ITEM: TIMESTEP
1
ITEM: NUMBER OF ATOMS
22
ITEM: BOX BOUNDS pp pp pp
-5.0000000000000000e+01 5.0000000000000000e+01
-5.0000000000000000e+01 5.0000000000000000e+01
-5.0000000000000000e+01 5.0000000000000000e+01
ITEM: ATOMS id type x y z fx fy fz
1 1 8.23557 5.71279 0.745167 -6.56949 1.00083 0.274055
2 2 7.68419 4.81384 0.469533 -46.8353 7.08419 -3.75237
3 1 7.71597 4.11142 1.30241 10.2584 -2.98722 -8.38818
4 1 8.08285 4.4555 -0.479551 3.99447 -7.38257 8.34999
5 3 6.14986 5.11332 0.285128 44.3491 31.1463 45.529
6 4 5.54324 5.55233 1.33609 16.6848 -29.8216 -77.2228
7 5 5.73398 4.93091 -0.998024 -29.0487 -6.97799 29.309
8 6 6.39895 4.4985 -1.62327 2.38045 7.87815 1.40779
9 2 4.32649 4.82579 -1.46094 -30.2724 15.1192 67.831
10 7 4.11524 5.53534 -2.26095 2.26671 11.3967 16.2237
11 2 4.21561 3.48874 -2.13078 -15.7028 15.7078 -23.678
12 1 4.94735 2.73237 -1.84696 -1.49913 5.58317 0.656706
13 1 3.18408 3.13981 -2.08291 3.22719 -6.27973 2.44731
14 1 4.33546 3.90409 -3.13139 8.75279 -34.3921 -14.4648
15 3 3.1416 4.9443 -0.329611 17.5219 -13.6224 -38.4878
16 4 2.09592 5.55385 -0.534408 9.74426 18.2687 -27.8161
17 5 3.17101 4.17469 0.753281 12.1573 14.6309 -29.221
18 6 4.09644 3.83865 0.978566 -11.2485 -10.4621 19.3711
19 2 1.95385 4.07378 1.54881 6.02908 -7.35089 38.6537
20 7 2.12433 3.4385 2.41797 -0.824972 -7.51229 -2.40934
21 7 1.72718 5.0497 1.97809 -0.631211 1.77768 -4.0742
22 7 1.08709 3.75287 0.971015 5.26612 -2.80474 -0.53883
