22
 Atoms. Timestep: 0
1 8.25132 5.69977 0.751896
2 7.68634 4.81182 0.468294
1 7.73099 4.13792 1.32384
1 8.06839 4.47061 -0.493846
3 6.14802 5.11691 0.28884
4 5.54077 5.55724 1.34278
5 5.73953 4.9325 -0.996771
6 6.40096 4.49385 -1.62142
2 4.32527 4.82269 -1.45934
7 4.08988 5.54329 -2.24255
2 4.21062 3.48983 -2.13594
1 4.96362 2.74677 -1.87333
1 3.17354 3.15546 -2.10842
1 4.35172 3.89123 -3.13947
3 3.14514 4.94653 -0.336355
4 2.09832 5.54684 -0.536405
5 3.16574 4.1751 0.756351
6 4.09433 3.83124 0.955285
2 1.95724 4.07092 1.54813
7 2.11059 3.43629 2.42095
7 1.71569 5.04434 1.97498
7 1.08445 3.73702 0.987012
22
 Atoms. Timestep: 1
1 8.23557 5.71279 0.745167
2 7.68419 4.81384 0.469533
1 7.71597 4.11142 1.30241
1 8.08285 4.4555 -0.479551
3 6.14986 5.11332 0.285128
4 5.54324 5.55233 1.33609
5 5.73398 4.93091 -0.998024
6 6.39895 4.4985 -1.62327
2 4.32649 4.82579 -1.46094
7 4.11524 5.53534 -2.26095
2 4.21561 3.48874 -2.13078
1 4.94735 2.73237 -1.84696
1 3.18408 3.13981 -2.08291
1 4.33546 3.90409 -3.13139
3 3.1416 4.9443 -0.329611
4 2.09592 5.55385 -0.534408
5 3.17101 4.17469 0.753281
6 4.09644 3.83865 0.978566
2 1.95385 4.07378 1.54881
7 2.12433 3.4385 2.41797
7 1.72718 5.0497 1.97809
7 1.08709 3.75287 0.971015
