ITEM: TIMESTEP
0
ITEM: NUMBER OF ATOMS
14
ITEM: BOX BOUNDS pp pp pp
-2.2206855000000001e+01 1.8793144999999999e+01
-1.9677098999999998e+01 2.1322901000000002e+01
-1.9241968000000000e+01 2.1758032000000000e+01
ITEM: ATOMS id type x y z fx fy fz
1 1 -4.87522 -1.118 6.10379 -20.5884 -10.4686 21.7687
2 2 -4.02589 -1.83905 6.26286 -22.112 11.2902 -0.314251
3 2 -5.84488 -1.39048 6.67577 43.9563 4.80397 -16.7555
4 2 -4.55214 -0.130689 6.46745 -0.00702072 -7.85505 0.15776
5 1 -5.24522 -0.99854 4.6312 -4.76084 0.657081 -53.7602
6 2 -4.34655 -0.796472 3.96363 -20.5029 -0.74012 26.6173
7 2 -5.5871 -2.00131 4.21001 2.61409 30.6423 16.3049
8 1 -6.31484 0.171582 4.40784 10.2928 -17.9494 -3.42671
9 2 -6.02786 1.02558 5.04559 -8.3913 -10.2588 2.16479
10 2 -7.35023 -0.197369 4.67742 25.079 12.4427 -4.24832
11 1 -6.29817 0.805521 2.98245 4.93201 20.1909 9.32721
12 2 -6.65142 0.07218 2.23054 12.7777 8.61621 3.55346
13 2 -7.07321 1.6193 3.00303 17.4708 -14.8567 -4.70592
14 2 -5.28092 1.3155 2.75253 -40.7602 -26.5146 3.31665
ITEM: TIMESTEP
1
ITEM: NUMBER OF ATOMS
14
ITEM: BOX BOUNDS pp pp pp
-2.2206855000000001e+01 1.8793144999999999e+01
-1.9677098999999998e+01 2.1322901000000002e+01
-1.9241968000000000e+01 2.1758032000000000e+01
ITEM: ATOMS id type x y z fx fy fz
1 1 -4.87558 -1.11818 6.10417 -17.6209 -7.69761 17.1347
2 2 -4.03048 -1.83671 6.2628 -19.5434 9.23468 0.0898082
3 2 -5.83575 -1.38949 6.67229 38.1048 3.33458 -13.4681
4 2 -4.55214 -0.132319 6.46749 0.196949 -7.04678 0.475758
5 1 -5.2453 -0.998529 4.63026 -6.83511 4.00757 -47.7832
6 2 -4.3508 -0.796626 3.96915 -16.8499 -0.0411338 23.5414
7 2 -5.58656 -1.99496 4.21339 1.2982 26.2885 14.206
8 1 -6.31466 0.171269 4.40778 13.1687 -17.1053 -4.93886
9 2 -6.0296 1.02345 5.04604 -7.90755 -9.39901 2.66472
10 2 -7.34503 -0.194787 4.67654 21.5447 10.9903 -3.42689
11 1 -6.29808 0.805873 2.98261 1.9288 15.576 11.2272
12 2 -6.64877 0.0739682 2.23128 12.0966 7.62563 2.70269
13 2 -7.06959 1.61622 3.00206 15.1526 -12.422 -4.59849
14 2 -5.28938 1.31 2.75322 -34.7344 -23.3454 2.17314
