22
 Atoms. Timestep: 0
1 7.78076 5.38835 1.14687
2 7.21374 4.95372 1.97009
1 7.0816 5.75127 2.70123
1 7.75369 4.22016 2.56879
3 5.87797 4.41873 1.5476
4 5.28293 3.75916 2.32102
5 5.45429 4.49048 0.261567
6 6.05608 4.94116 -0.412845
2 4.31671 4.05416 -0.431583
7 4.76589 3.40137 -1.18005
2 3.36246 3.25528 0.45026
1 2.3858 2.99502 0.0422282
1 3.79463 2.35919 0.895619
1 3.2082 3.95391 1.27259
3 3.63084 5.21647 -1.08664
4 3.84206 6.395 -0.85094
5 2.74675 4.94742 -2.00568
6 2.41393 3.99875 -2.1024
2 2.27805 5.82155 -3.04732
7 3.10125 6.35094 -3.5271
7 1.72905 5.31017 -3.83801
7 1.61331 6.50972 -2.52518
22
 Atoms. Timestep: 1
1 7.75861 5.38455 1.13196
2 7.21418 4.95415 1.97246
1 7.0588 5.75269 2.69792
1 7.76101 4.21582 2.55894
3 5.87892 4.41443 1.5422
4 5.28502 3.75444 2.31607
5 5.45094 4.48811 0.259492
6 6.0454 4.96433 -0.403779
2 4.31912 4.05503 -0.435946
7 4.77628 3.40591 -1.18277
2 3.36606 3.25355 0.457222
1 2.38267 2.98644 0.0703057
1 3.80889 2.36634 0.909844
1 3.18834 3.94994 1.2767
3 3.62679 5.2152 -1.07976
4 3.83986 6.4018 -0.848352
5 2.75216 4.94663 -2.0084
6 2.40947 3.99965 -2.08521
2 2.27473 5.82478 -3.04778
7 3.09558 6.35388 -3.5319
7 1.73583 5.30685 -3.84115
7 1.63604 6.53779 -2.52645
