ITEM: TIMESTEP
0
ITEM: NUMBER OF ATOMS
22
ITEM: BOX BOUNDS pp pp pp
-5.0000000000000000e+01 5.0000000000000000e+01
-5.0000000000000000e+01 5.0000000000000000e+01
-5.0000000000000000e+01 5.0000000000000000e+01
ITEM: ATOMS id type x y z fx fy fz
1 1 3.83031 8.00322 -0.681263 -20.5222 -11.3752 34.003
2 2 3.59811 7.89699 0.378406 94.6328 -18.6337 -12.1017
3 1 2.82224 8.5581 0.76448 -44.5196 23.348 11.8428
4 1 4.50137 8.28497 0.849257 -27.5325 -12.1824 -13.533
5 3 3.49397 6.44796 0.914913 -14.9885 11.3065 14.2429
6 4 3.11167 6.18816 2.07372 4.83261 15.5954 -24.4557
7 5 3.8686 5.50778 0.0686383 -22.1733 48.9762 46.6881
8 6 4.31832 5.79964 -0.787321 29.6828 32.0621 -71.4938
9 2 4.13821 4.23622 0.390427 -59.4825 -103.967 -28.6945
10 7 4.49527 4.12944 1.41474 -1.04634 -1.42271 30.6891
11 2 2.77175 3.43552 0.105115 -3.51194 -29.3095 149.636
12 1 2.46543 3.71013 -0.90427 -30.6977 17.2688 -52.6999
13 1 3.08005 2.39439 0.00972101 -29.3795 46.265 17.8352
14 1 2.01187 3.62081 0.864289 101.965 -25.5698 -102.33
15 3 5.28618 3.71503 -0.472147 69.2131 37.1608 78.2091
16 4 6.44989 3.97729 -0.048134 -36.5874 -4.61227 -26.901
17 5 5.09596 3.03739 -1.54674 -10.2517 -14.441 -39.4103
18 6 4.24381 2.52343 -1.71934 -23.9294 3.27919 8.9409
19 2 6.01425 2.96204 -2.62342 77.5818 54.5748 -55.0157
20 7 7.06006 3.03391 -2.32474 -52.5642 -9.21693 -5.51491
21 7 5.81912 2.01385 -3.12437 3.83364 -19.2106 -10.3139
22 7 5.90474 3.73373 -3.3854 -4.55518 -39.8961 50.3767
ITEM: TIMESTEP
1
ITEM: NUMBER OF ATOMS
22
ITEM: BOX BOUNDS pp pp pp
-5.0000000000000000e+01 5.0000000000000000e+01
-5.0000000000000000e+01 5.0000000000000000e+01
-5.0000000000000000e+01 5.0000000000000000e+01
ITEM: ATOMS id type x y z fx fy fz
1 1 3.80178 7.99721 -0.685599 -10.7926 -7.48967 1.63521
2 2 3.59904 7.89981 0.380941 17.1047 -9.48391 22.5752
3 1 2.79589 8.54113 0.743928 -2.20533 -8.57746 -4.65875
4 1 4.51219 8.2664 0.849844 -1.12758 3.90259 0.589266
5 3 3.49471 6.44403 0.910608 -17.2877 16.0132 16.9186
6 4 3.11397 6.18386 2.06777 4.38012 14.77 -22.4097
7 5 3.86461 5.50613 0.0664056 13.8542 77.2868 -24.5852
8 6 4.30328 5.82154 -0.786937 -5.08487 4.09686 -3.46284
9 2 4.13884 4.23729 0.387073 -47.5334 -108.466 1.6556
10 7 4.51959 4.11805 1.40143 -14.2031 4.01861 3.95641
11 2 2.77619 3.43357 0.112385 57.8657 13.089 -4.1762
12 1 2.44202 3.7006 -0.890172 -8.51402 0.0333318 6.40894
13 1 3.09525 2.39398 0.0378697 -15.5329 -4.59861 11.7114
14 1 2.01363 3.62943 0.866206 3.69805 -2.19066 -1.10895
15 3 5.28361 3.71385 -0.463663 75.2586 34.3484 61.9753
16 4 6.44692 3.98396 -0.0460832 -36.0876 -5.08192 -24.8888
17 5 5.10124 3.03627 -1.54962 -33.137 -16.3327 -24.2672
18 6 4.23656 2.53663 -1.70057 -7.33589 9.7596 6.63015
19 2 6.0105 2.96468 -2.62453 37.2804 -10.378 -40.6518
20 7 7.06005 3.04524 -2.3416 -1.27284 -6.75843 12.6092
21 7 5.83188 2.01224 -3.12359 5.49626 -1.1082 -2.29985
22 7 5.92809 3.75048 -3.37542 -14.8233 3.14729 5.84401
