ITEM: TIMESTEP
0
ITEM: NUMBER OF ATOMS
22
ITEM: BOX BOUNDS pp pp pp
-5.0000000000000000e+01 5.0000000000000000e+01
-5.0000000000000000e+01 5.0000000000000000e+01
-5.0000000000000000e+01 5.0000000000000000e+01
ITEM: ATOMS id type x y z fx fy fz
1 1 4.91061 7.69648 1.30691 98.4087 10.7527 -18.52
2 2 3.82713 7.809 1.34564 -108.517 -19.9568 -5.5793
3 1 3.31073 8.55221 0.738136 21.7771 -7.8058 15
4 1 3.70435 7.91563 2.42344 -17.4917 7.1896 11.95
5 3 3.29505 6.43698 0.922147 -11.7403 -6.36055 -11.0826
6 4 2.15625 6.04027 1.14973 2.0655 15.5845 10.6685
7 5 4.12642 5.71415 0.185603 -41.0763 -12.5476 26.681
8 6 5.03428 6.15673 0.181368 41.2335 -5.3376 -16.6739
9 2 3.83611 4.33413 -0.308883 47.3528 99.9864 -51.4308
10 7 3.12792 3.81291 0.335243 -46.2781 -35.4589 49.9604
11 2 3.13893 4.59008 -1.65117 -56.2367 -133.867 39.6517
12 1 2.64316 3.69183 -2.01921 26.7933 38.2458 24.4828
13 1 2.32443 5.25887 -1.37294 -45.3629 40.6444 -3.06188
14 1 3.72404 4.9276 -2.50663 63.6494 41.4945 -65.4625
15 3 5.13641 3.62719 -0.293349 48.827 -18.5185 -58.6635
16 4 5.60422 3.18452 0.700012 -1.50704 -12.1117 57.0042
17 5 5.89301 3.47872 -1.40655 20.7519 -66.5237 38.3308
18 6 5.49092 3.77724 -2.28365 -15.0847 19.4407 -33.2242
19 2 6.82605 2.24917 -1.48784 55.1336 65.4166 -11.1802
20 7 6.2508 1.43399 -1.92678 -22.7699 -35.957 -15.0345
21 7 7.67956 2.40541 -2.14755 -43.1248 1.25301 29.1292
22 7 7.2571 1.90212 -0.54877 -16.8039 14.4374 -12.9454
ITEM: TIMESTEP
1
ITEM: NUMBER OF ATOMS
22
ITEM: BOX BOUNDS pp pp pp
-5.0000000000000000e+01 5.0000000000000000e+01
-5.0000000000000000e+01 5.0000000000000000e+01
-5.0000000000000000e+01 5.0000000000000000e+01
ITEM: ATOMS id type x y z fx fy fz
1 1 4.90677 7.69506 1.29167 0.670214 21.9039 -14.8191
2 2 3.82452 7.81179 1.34829 -3.04802 -51.8689 9.41256
3 1 3.29814 8.52877 0.71824 13.0241 8.19689 8.06673
4 1 3.71725 7.90108 2.42932 -17.5075 8.45651 -2.83688
5 3 3.29584 6.43274 0.917401 -14.7292 -1.21794 -5.35212
6 4 2.15852 6.03597 1.14423 0.541627 14.8768 11.113
7 5 4.12215 5.71158 0.183072 -5.43546 10.1132 28.771
8 6 5.02163 6.17086 0.193129 11.5786 -23.9345 -18.7337
9 2 3.8386 4.33875 -0.312634 -0.776866 51.1243 0.866981
10 7 3.14285 3.79446 0.325934 3.60246 6.26988 3.06386
11 2 3.14245 4.58631 -1.64581 -25.0834 -19.9286 -6.98378
12 1 2.63168 3.68666 -1.98909 4.21079 -4.45664 3.25855
13 1 2.33631 5.25729 -1.34913 -3.27011 4.33459 -19.8113
14 1 3.71786 4.95014 -2.49707 8.89935 7.10218 13.1894
15 3 5.13348 3.62504 -0.287249 56.2286 -15.5096 -75.6288
16 4 5.60171 3.19109 0.70316 0.152156 -14.7526 62.6582
17 5 5.89875 3.47683 -1.40827 -10.5058 -44.7088 12.6625
18 6 5.4855 3.7938 -2.27363 5.05161 3.74974 2.48291
19 2 6.82191 2.252 -1.48819 -8.38279 26.8942 -16.9871
20 7 6.25697 1.43977 -1.94561 1.35357 -2.30954 6.28653
21 7 7.68257 2.40806 -2.13858 -3.84204 9.77139 -3.3009
22 7 7.27791 1.93015 -0.551934 -12.7318 5.89357 2.62148
