22
 Atoms. Timestep: 0
1 4.91061 7.69648 1.30691
2 3.82713 7.809 1.34564
1 3.31073 8.55221 0.738136
1 3.70435 7.91563 2.42344
3 3.29505 6.43698 0.922147
4 2.15625 6.04027 1.14973
5 4.12642 5.71415 0.185603
6 5.03428 6.15673 0.181368
2 3.83611 4.33413 -0.308883
7 3.12792 3.81291 0.335243
2 3.13893 4.59008 -1.65117
1 2.64316 3.69183 -2.01921
1 2.32443 5.25887 -1.37294
1 3.72404 4.9276 -2.50663
3 5.13641 3.62719 -0.293349
4 5.60422 3.18452 0.700012
5 5.89301 3.47872 -1.40655
6 5.49092 3.77724 -2.28365
2 6.82605 2.24917 -1.48784
7 6.2508 1.43399 -1.92678
7 7.67956 2.40541 -2.14755
7 7.2571 1.90212 -0.54877
22
 Atoms. Timestep: 1
1 4.90677 7.69506 1.29167
2 3.82452 7.81179 1.34829
1 3.29814 8.52877 0.71824
1 3.71725 7.90108 2.42932
3 3.29584 6.43274 0.917401
4 2.15852 6.03597 1.14423
5 4.12215 5.71158 0.183072
6 5.02163 6.17086 0.193129
2 3.8386 4.33875 -0.312634
7 3.14285 3.79446 0.325934
2 3.14245 4.58631 -1.64581
1 2.63168 3.68666 -1.98909
1 2.33631 5.25729 -1.34913
1 3.71786 4.95014 -2.49707
3 5.13348 3.62504 -0.287249
4 5.60171 3.19109 0.70316
5 5.89875 3.47683 -1.40827
6 5.4855 3.7938 -2.27363
2 6.82191 2.252 -1.48819
7 6.25697 1.43977 -1.94561
7 7.68257 2.40806 -2.13858
7 7.27791 1.93015 -0.551934
