22
 Atoms. Timestep: 0
1 5.90708 7.65523 -1.90348
2 6.57942 6.8113 -2.05792
1 7.25191 6.95565 -1.21233
1 7.14928 6.84152 -2.9866
3 5.68955 5.61631 -1.78604
4 5.41562 5.03402 -2.76213
5 5.25734 5.27115 -0.566193
6 5.39987 5.78456 0.291824
2 4.18376 4.21936 -0.368486
7 3.44137 4.37689 -1.15088
2 4.65141 2.81327 -0.532544
1 3.98657 2.1105 -0.0303534
1 4.75401 2.56088 -1.58795
1 5.69939 2.72047 -0.247544
3 3.34533 4.48086 0.929969
4 2.46457 5.34992 0.854366
5 3.63599 3.87779 2.0607
6 4.48686 3.33369 2.06926
2 2.73499 3.90636 3.18519
7 1.66832 3.70868 3.07921
7 3.20963 3.20746 3.87393
7 2.85327 4.77389 3.83442
22
 Atoms. Timestep: 1
1 5.88731 7.64778 -1.9192
2 6.57696 6.81494 -2.05659
1 7.25526 6.93611 -1.212
1 7.15979 6.8234 -2.97764
3 5.69108 5.61272 -1.7904
4 5.41755 5.02896 -2.76831
5 5.25334 5.26887 -0.567602
6 5.37955 5.79276 0.286631
2 4.1855 4.22307 -0.370907
7 3.46321 4.36628 -1.17458
2 4.65362 2.81034 -0.526296
1 3.98642 2.11427 -0.0179355
1 4.77402 2.5481 -1.57741
1 5.69578 2.73276 -0.216496
3 3.3415 4.47967 0.936367
4 2.46213 5.35645 0.856849
5 3.64065 3.87733 2.05813
6 4.49426 3.33828 2.08776
2 2.7319 3.90907 3.18764
7 1.66654 3.71838 3.05828
7 3.21541 3.2121 3.87214
7 2.87522 4.78592 3.81906
