14
 Atoms. Timestep: 0
1 -7.07046 -1.67381 8.28409
2 -8.03978 -2.03554 7.8662
2 -7.33069 -1.14892 9.30327
2 -6.35977 -2.53812 8.54489
1 -6.29643 -0.834625 7.32148
2 -6.57757 -1.29765 6.26377
2 -6.68236 0.195174 7.20581
1 -4.74207 -0.723172 7.51931
2 -4.25086 -1.70692 7.47862
2 -4.52001 -0.39875 8.59852
1 -3.97434 0.285075 6.57928
2 -4.49552 1.26987 6.56311
2 -2.89449 0.474608 6.82264
2 -3.93624 -0.264899 5.56061
14
 Atoms. Timestep: 1
1 -7.07043 -1.67413 8.28544
2 -8.03622 -2.03497 7.86703
2 -7.32725 -1.15327 9.29248
2 -6.36683 -2.53345 8.5432
1 -6.29649 -0.834461 7.31979
2 -6.57226 -1.29245 6.27559
2 -6.68288 0.192901 7.20794
1 -4.7417 -0.722935 7.52013
2 -4.25227 -1.70604 7.47764
2 -4.52254 -0.400482 8.59084
1 -3.97438 0.284525 6.57879
2 -4.49399 1.2668 6.56164
2 -2.89924 0.473238 6.82336
2 -3.93741 -0.257882 5.5677
